clean Ni(100) surface                   
 3.53
     0.500000    0.500000    0.000000
    -0.500000    0.500000    0.000000
     0.000000    0.000000    5.000000
   5
Direct
  0.000000  0.000000  0.000000
  0.500000  0.500000  0.100000
  0.000000  0.000000  0.200000
  0.500000  0.500000  0.300000
  0.000000  0.000000  0.400000
 
   18   18  140
  1534.9      1413.2      1099.7      715.94      383.04      167.59      70.008      43.808      35.389      32.899    
  35.389      43.808      70.008      167.59      383.04      715.94      1099.7      1413.2      1413.2      1301.2    
  1012.1      657.75      350.62      153.32      65.775      42.689      34.539      32.137      34.539      42.689    
  65.775      153.32      350.62      657.75      1012.1      1301.2      1099.7      1012.1      785.50      507.18    
  267.51      117.83      55.818      39.536      32.210      30.069      32.210      39.536      55.818      117.83    
  267.51      507.18      785.50      1012.1      715.94      657.75      507.18      323.27      168.82      78.631    
  45.755      34.956      28.966      27.230      28.966      34.956      45.755      78.631      168.82      323.27    
  507.18      657.75      383.04      350.62      267.51      168.82      91.272      51.666      37.967      29.880    
  25.498      24.232      25.498      29.880      37.967      51.666      91.272      168.82      267.51      350.62    
  167.59      153.32      117.83      78.631      51.666      39.084      30.870      25.267      22.373      21.531    
  22.373      25.267      30.870      39.084      51.666      78.631      117.83      153.32      70.008      65.775    
  55.818      45.755      37.967      30.870      25.301      21.734      19.901      19.355      19.901      21.734    
  25.301      30.870      37.967      45.755      55.818      65.775      43.808      42.689      39.536      34.956    
  29.880      25.267      21.734      19.420      18.165      17.772      18.165      19.420      21.734      25.267    
  29.880      34.956      39.536      42.689      35.389      34.539      32.210      28.966      25.498      22.373    
  19.901      18.165      17.143      16.805      17.143      18.165      19.901      22.373      25.498      28.966    
  32.210      34.539      32.899      32.137      30.069      27.230      24.232      21.531      19.355      17.772    
  16.805      16.477      16.805      17.772      19.355      21.531      24.232      27.230      30.069      32.137    
  35.389      34.539      32.210      28.966      25.498      22.373      19.901      18.165      17.143      16.805    
  17.143      18.165      19.901      22.373      25.498      28.966      32.210      34.539      43.808      42.689    
  39.536      34.956      29.880      25.267      21.734      19.420      18.165      17.772      18.165      19.420    
  21.734      25.267      29.880      34.956      39.536      42.689      70.008      65.775      55.818      45.755    
  37.967      30.870      25.301      21.734      19.901      19.355      19.901      21.734      25.301      30.870    
  37.967      45.755      55.818      65.775      167.59      153.32      117.83      78.631      51.666      39.084    
  30.870      25.267      22.373      21.531      22.373      25.267      30.870      39.084      51.666      78.631    
  117.83      153.32      383.04      350.62      267.51      168.82      91.272      51.666      37.967      29.880    
  25.498      24.232      25.498      29.880      37.967      51.666      91.272      168.82      267.51      350.62    
  715.94      657.75      507.18      323.27      168.82      78.631      45.755      34.956      28.966      27.230    
  28.966      34.956      45.755      78.631      168.82      323.27      507.18      657.75      1099.7      1012.1    
  785.50      507.18      267.51      117.83      55.818      39.536      32.210      30.069      32.210      39.536    
  55.818      117.83      267.51      507.18      785.50      1012.1      1413.2      1301.2      1012.1      657.75    
  350.62      153.32      65.775      42.689      34.539      32.137      34.539      42.689      65.775      153.32    
  350.62      657.75      1012.1      1301.2      1433.3      1318.9      1024.3      664.57      354.09      155.09    
  66.665      43.316      35.219      32.836      35.219      43.316      66.665      155.09      354.09      664.57    
  1024.3      1318.9      1318.9      1213.5      942.03      610.14      324.00      142.07      62.930      42.284    
  34.451      32.152      34.451      42.284      62.930      142.07      324.00      610.14      942.03      1213.5    
  1024.3      942.03      729.62      469.59      247.10      109.83      54.188      39.367      32.338      30.291    
  32.338      39.367      54.188      109.83      247.10      469.59      729.62      942.03      664.57      610.14    
  469.59      298.69      156.39      74.562      45.354      35.116      29.383      27.725      29.383      35.116    
  45.354      74.562      156.39      298.69      469.59      610.14      354.09      324.00      247.10      156.39    
  85.955      50.664      38.154      30.391      26.208      25.001      26.208      30.391      38.154      50.664    
  85.955      156.39      247.10      324.00      155.09      142.07      109.83      74.562      50.664      39.300    
  31.426      26.085      23.334      22.533      23.334      26.085      31.426      39.300      50.664      74.562    
  109.83      142.07      66.665      62.930      54.188      45.354      38.154      31.426      26.155      22.783    
  21.052      20.537      21.052      22.783      26.155      31.426      38.154      45.354      54.188      62.930    
  43.316      42.284      39.367      35.116      30.391      26.085      22.783      20.619      19.446      19.080    
  19.446      20.619      22.783      26.085      30.391      35.116      39.367      42.284      35.219      34.451    
  32.338      29.383      26.208      23.334      21.052      19.446      18.500      18.187      18.500      19.446    
  21.052      23.334      26.208      29.383      32.338      34.451      32.836      32.152      30.291      27.725    
  25.001      22.533      20.537      19.080      18.187      17.884      18.187      19.080      20.537      22.533    
  25.001      27.725      30.291      32.152      35.219      34.451      32.338      29.383      26.208      23.334    
  21.052      19.446      18.500      18.187      18.500      19.446      21.052      23.334      26.208      29.383    
  32.338      34.451      43.316      42.284      39.367      35.116      30.391      26.085      22.783      20.619    
  19.446      19.080      19.446      20.619      22.783      26.085      30.391      35.116      39.367      42.284    
  66.665      62.930      54.188      45.354      38.154      31.426      26.155      22.783      21.052      20.537    
  21.052      22.783      26.155      31.426      38.154      45.354      54.188      62.930      155.09      142.07    
  109.83      74.562      50.664      39.300      31.426      26.085      23.334      22.533      23.334      26.085    
  31.426      39.300      50.664      74.562      109.83      142.07      354.09      324.00      247.10      156.39    
  85.955      50.664      38.154      30.391      26.208      25.001      26.208      30.391      38.154      50.664    
  85.955      156.39      247.10      324.00      664.57      610.14      469.59      298.69      156.39      74.562    
  45.354      35.116      29.383      27.725      29.383      35.116      45.354      74.562      156.39      298.69    
  469.59      610.14      1024.3      942.03      729.62      469.59      247.10      109.83      54.188      39.367    
  32.338      30.291      32.338      39.367      54.188      109.83      247.10      469.59      729.62      942.03    
  1318.9      1213.5      942.03      610.14      324.00      142.07      62.930      42.284      34.451      32.152    
  34.451      42.284      62.930      142.07      324.00      610.14      942.03      1213.5      1171.7      1076.0    
  830.42      533.06      280.62      123.94      58.400      41.329      34.011      31.874      34.011      41.329    
  58.400      123.94      280.62      533.06      830.42      1076.0      1076.0      987.98      762.05      488.33    
  256.49      114.01      55.792      40.442      33.382      31.326      33.382      40.442      55.792      114.01    
  256.49      488.33      762.05      987.98      830.42      762.05      586.31      373.59      195.43      89.776    
  49.727      37.937      31.645      29.822      31.645      37.937      49.727      89.776      195.43      373.59    
  586.31      762.05      533.06      488.33      373.59      236.19      124.94      64.070      43.376      34.285    
  29.195      27.725      29.195      34.285      43.376      64.070      124.94      236.19      373.59      488.33    
  280.62      256.49      195.43      124.94      72.285      47.289      37.167      30.218      26.525      25.458    
  26.525      30.218      37.167      47.289      72.285      124.94      195.43      256.49      123.94      114.01    
  89.776      64.070      47.289      38.287      31.215      26.489      24.061      23.351      24.061      26.489    
  31.215      38.287      47.289      64.070      89.776      114.01      58.400      55.792      49.727      43.375    
  37.167      31.215      26.573      23.596      22.054      21.591      22.054      23.596      26.573      31.215    
  37.167      43.375      49.727      55.792      41.329      40.442      37.937      34.285      30.218      26.489    
  23.596      21.667      20.601      20.264      20.601      21.667      23.596      26.489      30.218      34.285    
  37.937      40.442      34.011      33.382      31.645      29.195      26.525      24.061      22.054      20.601    
  19.722      19.427      19.722      20.601      22.054      24.061      26.525      29.195      31.645      33.382    
  31.874      31.326      29.822      27.725      25.458      23.351      21.591      20.264      19.427      19.140    
  19.427      20.264      21.591      23.351      25.458      27.725      29.822      31.326      34.011      33.382    
  31.645      29.195      26.525      24.061      22.054      20.601      19.722      19.427      19.722      20.601    
  22.054      24.061      26.525      29.195      31.645      33.382      41.329      40.442      37.937      34.285    
  30.218      26.489      23.596      21.667      20.601      20.264      20.601      21.667      23.596      26.489    
  30.218      34.285      37.937      40.442      58.400      55.792      49.727      43.375      37.167      31.215    
  26.573      23.596      22.054      21.591      22.054      23.596      26.573      31.215      37.167      43.375    
  49.727      55.792      123.94      114.01      89.776      64.070      47.289      38.287      31.215      26.489    
  24.061      23.351      24.061      26.489      31.215      38.287      47.289      64.070      89.776      114.01    
  280.62      256.49      195.43      124.94      72.285      47.289      37.167      30.218      26.525      25.458    
  26.525      30.218      37.167      47.289      72.285      124.94      195.43      256.49      533.06      488.33    
  373.59      236.19      124.94      64.070      43.376      34.285      29.195      27.725      29.195      34.285    
  43.376      64.070      124.94      236.19      373.59      488.33      830.42      762.05      586.31      373.59    
  195.43      89.776      49.727      37.937      31.645      29.822      31.645      37.937      49.727      89.776    
  195.43      373.59      586.31      762.05      1076.0      987.98      762.05      488.33      256.49      114.01    
  55.792      40.442      33.382      31.326      33.382      40.442      55.792      114.01      256.49      488.33    
  762.05      987.98      834.88      763.88      583.11      367.94      191.29      88.380      49.832      38.386    
  32.241      30.463      32.241      38.386      49.832      88.380      191.29      367.94      583.11      763.88    
  763.88      698.81      533.10      336.00      174.90      82.274      48.413      37.692      31.785      30.078    
  31.785      37.692      48.413      82.274      174.90      336.00      533.10      698.81      583.11      533.10    
  405.80      255.15      134.19      67.770      44.993      35.733      30.517      29.012      30.517      35.733    
  44.993      67.770      134.19      255.15      405.80      533.10      367.94      336.00      255.15      161.18    
  89.125      53.152      40.581      32.882      28.706      27.501      28.706      32.882      40.581      53.152    
  89.125      161.18      255.15      336.00      191.29      174.90      134.19      89.125      57.800      43.645    
  35.460      29.707      26.704      25.833      26.704      29.707      35.460      43.645      57.800      89.125    
  134.19      174.90      88.380      82.274      67.770      53.152      43.645      36.500      30.629      26.789    
  24.823      24.245      24.823      26.789      30.629      36.500      43.645      53.152      67.770      82.274    
  49.832      48.413      44.993      40.581      35.460      30.629      26.899      24.508      23.263      22.886    
  23.263      24.508      26.899      30.629      35.460      40.581      44.993      48.413      38.386      37.692    
  35.733      32.882      29.707      26.789      24.508      22.972      22.112      21.837      22.112      22.972    
  24.508      26.789      29.707      32.882      35.733      37.692      32.241      31.785      30.517      28.706    
  26.704      24.823      23.263      22.112      21.404      21.165      21.404      22.112      23.263      24.823    
  26.704      28.706      30.517      31.785      30.463      30.078      29.011      27.501      25.833      24.245    
  22.886      21.837      21.165      20.931      21.165      21.837      22.886      24.245      25.833      27.501    
  29.011      30.078      32.241      31.785      30.517      28.706      26.704      24.823      23.263      22.112    
  21.404      21.165      21.404      22.112      23.263      24.823      26.704      28.706      30.517      31.785    
  38.386      37.692      35.733      32.882      29.707      26.789      24.508      22.972      22.112      21.837    
  22.112      22.972      24.508      26.789      29.707      32.882      35.733      37.692      49.832      48.413    
  44.993      40.581      35.460      30.629      26.899      24.508      23.263      22.886      23.263      24.508    
  26.899      30.629      35.460      40.581      44.993      48.413      88.380      82.274      67.770      53.152    
  43.645      36.500      30.629      26.789      24.823      24.245      24.823      26.789      30.629      36.500    
  43.645      53.152      67.770      82.274      191.29      174.90      134.19      89.125      57.800      43.645    
  35.460      29.707      26.704      25.833      26.704      29.707      35.460      43.645      57.800      89.125    
  134.19      174.90      367.94      336.00      255.15      161.18      89.125      53.152      40.581      32.882    
  28.706      27.501      28.706      32.882      40.581      53.152      89.125      161.18      255.15      336.00    
  583.11      533.10      405.80      255.15      134.19      67.770      44.993      35.733      30.517      29.012    
  30.517      35.733      44.993      67.770      134.19      255.15      405.80      533.10      763.88      698.81    
  533.10      336.00      174.90      82.274      48.413      37.692      31.785      30.078      31.785      37.692    
  48.413      82.274      174.90      336.00      533.10      698.81      511.68      465.80      350.57      217.67    
  114.96      61.409      43.625      35.119      30.396      29.039      30.396      35.119      43.625      61.409    
  114.96      217.67      350.57      465.80      465.80      424.01      319.12      198.49      105.98      58.610    
  42.861      34.642      30.117      28.816      30.117      34.642      42.861      58.610      105.98      198.49    
  319.12      424.01      350.57      319.12      240.47      151.05      84.423      52.184      40.658      33.302    
  29.342      28.201      29.342      33.302      40.658      52.184      84.423      151.05      240.47      319.12    
  217.67      198.49      151.05      98.715      62.177      45.792      37.351      31.373      28.242      27.337    
  28.242      31.373      37.351      45.792      62.177      98.715      151.05      198.49      114.96      105.98    
  84.423      62.177      48.068      40.081      33.592      29.266      27.055      26.412      27.055      29.266    
  33.592      40.081      48.068      62.177      84.423      105.98      61.409      58.610      52.184      45.792    
  40.081      34.524      30.159      27.392      25.999      25.592      25.999      27.392      30.159      34.524    
  40.081      45.792      52.184      58.610      43.625      42.861      40.658      37.351      33.592      30.159    
  27.591      26.001      25.200      24.963      25.200      26.001      27.591      30.159      33.592      37.351    
  40.658      42.861      35.119      34.642      33.302      31.373      29.266      27.392      26.001      25.128    
  24.676      24.540      24.676      25.128      26.001      27.392      29.266      31.373      33.302      34.642    
  30.396      30.117      29.342      28.242      27.055      25.999      25.200      24.676      24.389      24.298    
  24.389      24.676      25.200      25.999      27.055      28.242      29.342      30.117      29.039      28.816    
  28.201      27.337      26.412      25.592      24.963      24.540      24.298      24.219      24.298      24.540    
  24.963      25.592      26.412      27.337      28.201      28.816      30.396      30.117      29.342      28.242    
  27.055      25.999      25.200      24.676      24.389      24.298      24.389      24.676      25.200      25.999    
  27.055      28.242      29.342      30.117      35.119      34.642      33.302      31.373      29.266      27.392    
  26.001      25.128      24.676      24.540      24.676      25.128      26.001      27.392      29.266      31.373    
  33.302      34.642      43.625      42.861      40.658      37.351      33.592      30.159      27.591      26.001    
  25.200      24.963      25.200      26.001      27.591      30.159      33.592      37.351      40.658      42.861    
  61.409      58.610      52.184      45.792      40.081      34.524      30.159      27.392      25.999      25.592    
  25.999      27.392      30.159      34.524      40.081      45.792      52.184      58.610      114.96      105.98    
  84.423      62.177      48.068      40.081      33.592      29.266      27.055      26.412      27.055      29.266    
  33.592      40.081      48.068      62.177      84.423      105.98      217.67      198.49      151.05      98.715    
  62.177      45.792      37.351      31.373      28.242      27.337      28.242      31.373      37.351      45.792    
  62.177      98.715      151.05      198.49      350.57      319.12      240.47      151.05      84.423      52.184    
  40.658      33.302      29.342      28.201      29.342      33.302      40.658      52.184      84.423      151.05    
  240.47      319.12      465.80      424.01      319.12      198.49      105.98      58.610      42.861      34.642    
  30.117      28.816      30.117      34.642      42.861      58.610      105.98      198.49      319.12      424.01    
  264.20      239.58      179.23      113.44      67.690      47.319      38.360      32.108      28.836      27.899    
  28.836      32.108      38.360      47.319      67.690      113.44      179.23      239.58      239.58      217.41    
  163.22      104.48      64.160      46.392      37.848      31.851      28.724      27.828      28.724      31.851    
  37.848      46.392      64.160      104.48      163.22      217.41      179.23      163.22      124.38      83.200    
  56.087      44.036      36.408      31.149      28.438      27.658      28.438      31.149      36.408      44.036    
  56.087      83.200      124.38      163.22      113.44      104.48      83.200      61.688      48.320      40.606    
  34.345      30.210      28.114      27.510      28.114      30.210      34.345      40.606      48.320      61.688    
  83.200      104.48      67.690      64.160      56.087      48.320      42.318      36.634      32.150      29.328    
  27.934      27.535      27.934      29.328      32.150      36.634      42.318      48.320      56.087      64.160    
  47.319      46.392      44.036      40.606      36.634      32.995      30.329      28.762      28.037      27.838    
  28.037      28.762      30.329      32.995      36.634      40.606      44.036      46.392      38.360      37.848    
  36.408      34.345      32.150      30.329      29.160      28.605      28.428      28.398      28.428      28.605    
  29.160      30.329      32.150      34.345      36.408      37.848      32.108      31.851      31.149      30.210    
  29.328      28.762      28.605      28.745      28.962      29.059      28.962      28.745      28.605      28.762    
  29.328      30.210      31.149      31.851      28.836      28.724      28.438      28.114      27.934      28.037    
  28.428      28.962      29.414      29.589      29.414      28.962      28.428      28.037      27.934      28.114    
  28.438      28.724      27.899      27.828      27.658      27.510      27.535      27.838      28.398      29.059    
  29.589      29.792      29.589      29.059      28.398      27.838      27.535      27.510      27.658      27.828    
  28.836      28.724      28.438      28.114      27.934      28.037      28.428      28.962      29.414      29.589    
  29.414      28.962      28.428      28.037      27.934      28.114      28.438      28.724      32.108      31.851    
  31.149      30.210      29.328      28.762      28.605      28.745      28.962      29.059      28.962      28.745    
  28.605      28.762      29.328      30.210      31.149      31.851      38.360      37.848      36.408      34.345    
  32.150      30.329      29.160      28.605      28.428      28.398      28.428      28.605      29.160      30.329    
  32.150      34.345      36.408      37.848      47.319      46.392      44.036      40.606      36.634      32.995    
  30.329      28.762      28.037      27.838      28.037      28.762      30.329      32.995      36.634      40.606    
  44.036      46.392      67.690      64.160      56.087      48.320      42.318      36.634      32.150      29.328    
  27.934      27.535      27.934      29.328      32.150      36.634      42.318      48.320      56.087      64.160    
  113.44      104.48      83.200      61.688      48.320      40.606      34.345      30.210      28.114      27.510    
  28.114      30.210      34.345      40.606      48.320      61.688      83.200      104.48      179.23      163.22    
  124.38      83.200      56.087      44.036      36.408      31.149      28.438      27.658      28.438      31.149    
  36.408      44.036      56.087      83.200      124.38      163.22      239.58      217.41      163.22      104.48    
  64.160      46.392      37.848      31.851      28.724      27.828      28.724      31.851      37.848      46.392    
  64.160      104.48      163.22      217.41      117.06      107.23      84.174      61.408      47.650      39.908    
  33.758      29.754      27.747      27.174      27.747      29.754      33.758      39.908      47.650      61.408    
  84.174      107.23      107.23      98.579      78.400      58.665      46.743      39.412      33.522      29.710    
  27.804      27.258      27.804      29.710      33.522      39.412      46.743      58.665      78.400      98.579    
  84.174      78.400      65.134      52.497      44.458      38.027      32.908      29.656      28.045      27.584    
  28.045      29.656      32.908      38.027      44.458      52.497      65.134      78.400      61.408      58.665    
  52.497      46.528      41.171      36.078      32.186      29.804      28.658      28.336      28.658      29.804    
  32.186      36.078      41.171      46.528      52.497      58.665      47.650      46.743      44.458      41.171    
  37.431      34.083      31.713      30.397      29.838      29.698      29.838      30.397      31.713      34.083    
  37.431      41.171      44.458      46.743      39.908      39.412      38.027      36.078      34.083      32.559    
  31.754      31.555      31.636      31.701      31.636      31.555      31.754      32.559      34.083      36.078    
  38.027      39.412      33.758      33.522      32.908      32.186      31.713      31.754      32.318      33.138    
  33.835      34.104      33.835      33.138      32.318      31.754      31.713      32.186      32.908      33.522    
  29.754      29.710      29.656      29.804      30.397      31.555      33.138      34.766      35.978      36.425    
  35.978      34.766      33.138      31.555      30.397      29.804      29.656      29.710      27.747      27.804    
  28.045      28.658      29.838      31.636      33.835      35.978      37.537      38.106      37.537      35.978    
  33.835      31.636      29.838      28.658      28.045      27.804      27.174      27.258      27.584      28.336    
  29.698      31.701      34.104      36.425      38.106      38.718      38.106      36.425      34.104      31.701    
  29.698      28.336      27.584      27.258      27.747      27.804      28.045      28.658      29.838      31.636    
  33.835      35.978      37.537      38.106      37.537      35.978      33.835      31.636      29.838      28.658    
  28.045      27.804      29.754      29.710      29.656      29.804      30.397      31.555      33.138      34.766    
  35.978      36.425      35.978      34.766      33.138      31.555      30.397      29.804      29.656      29.710    
  33.758      33.522      32.908      32.186      31.713      31.754      32.318      33.138      33.835      34.104    
  33.835      33.138      32.318      31.754      31.713      32.186      32.908      33.522      39.908      39.412    
  38.027      36.078      34.083      32.559      31.754      31.555      31.636      31.701      31.636      31.555    
  31.754      32.559      34.083      36.078      38.027      39.412      47.650      46.743      44.458      41.171    
  37.431      34.083      31.713      30.397      29.838      29.698      29.838      30.397      31.713      34.083    
  37.431      41.171      44.458      46.743      61.408      58.665      52.497      46.528      41.171      36.078    
  32.186      29.804      28.658      28.336      28.658      29.804      32.186      36.078      41.171      46.528    
  52.497      58.665      84.174      78.400      65.134      52.497      44.458      38.027      32.908      29.656    
  28.045      27.584      28.045      29.656      32.908      38.027      44.458      52.497      65.134      78.400    
  107.23      98.579      78.400      58.665      46.743      39.412      33.522      29.710      27.804      27.258    
  27.804      29.710      33.522      39.412      46.743      58.665      78.400      98.579      56.625      54.283    
  49.068      43.842      38.665      33.915      30.373      28.223      27.187      26.895      27.187      28.223    
  30.373      33.915      38.665      43.842      49.068      54.283      54.283      52.300      47.857      43.162    
  38.233      33.737      30.407      28.402      27.443      27.173      27.443      28.402      30.407      33.737    
  38.233      43.162      47.857      52.300      49.068      47.857      44.986      41.238      37.054      33.315    
  30.623      29.063      28.350      28.157      28.350      29.063      30.623      33.315      37.054      41.238    
  44.986      47.857      43.842      43.162      41.238      38.459      35.471      32.958      31.316      30.511    
  30.236      30.184      30.236      30.511      31.316      32.958      35.471      38.459      41.238      43.162    
  38.665      38.233      37.054      35.471      33.986      33.040      32.779      33.004      33.347      33.500    
  33.347      33.004      32.779      33.040      33.986      35.471      37.054      38.233      33.915      33.737    
  33.315      32.958      33.040      33.777      35.055      36.466      37.537      37.931      37.537      36.466    
  35.055      33.777      33.040      32.958      33.315      33.737      30.373      30.407      30.623      31.316    
  32.779      35.055      37.790      40.356      42.144      42.779      42.144      40.356      37.790      35.055    
  32.779      31.316      30.623      30.407      28.223      28.402      29.063      30.511      33.004      36.466    
  40.356      43.865      46.595      47.761      46.595      43.865      40.356      36.466      33.004      30.511    
  29.063      28.402      27.187      27.443      28.350      30.236      33.347      37.537      42.144      46.595    
  50.908      52.860      50.908      46.595      42.144      37.537      33.347      30.236      28.350      27.443    
  26.895      27.173      28.157      30.184      33.500      37.931      42.779      47.761      52.860      55.180    
  52.860      47.761      42.779      37.931      33.500      30.184      28.157      27.173      27.187      27.443    