clean Ni(100) surface                   
 3.53
     0.500000    0.500000    0.000000
    -0.500000    0.500000    0.000000
     0.000000    0.000000    5.000000
   5
Direct
  0.000000  0.000000  0.000000
  0.500000  0.500000  0.100000
  0.000000  0.000000  0.200000
  0.500000  0.500000  0.300394
  0.000000  0.000000  0.395890
 
   18   18  140
 0.15348702256E+04 0.14131711487E+04 0.10996617781E+04 0.71594204079E+03 0.38305674282E+03
 0.16759623903E+03 0.70008873776E+02 0.43807459571E+02 0.35388187677E+02 0.32898505355E+02
 0.35388187677E+02 0.43807459571E+02 0.70008873776E+02 0.16759623903E+03 0.38305674282E+03
 0.71594204079E+03 0.10996617781E+04 0.14131711487E+04 0.14131711450E+04 0.13011319912E+04
 0.10121115347E+04 0.65780394581E+03 0.35066654273E+03 0.15333937985E+03 0.65778890675E+02
 0.42688890389E+02 0.34539325558E+02 0.32137685563E+02 0.34539325558E+02 0.42688890389E+02
 0.65778890675E+02 0.15333937985E+03 0.35066654273E+03 0.65780394581E+03 0.10121115347E+04
 0.13011319912E+04 0.10996617646E+04 0.10121115250E+04 0.78559921344E+03 0.50730979194E+03
 0.26760697026E+03 0.11787092503E+03 0.55826465207E+02 0.39538442664E+02 0.32210759448E+02
 0.30069906575E+02 0.32210759448E+02 0.39538442664E+02 0.55826465207E+02 0.11787092503E+03
 0.26760697026E+03 0.50730979194E+03 0.78559921344E+03 0.10121115250E+04 0.71594201560E+03
 0.65780392440E+03 0.50730978022E+03 0.32341908653E+03 0.16891954395E+03 0.78666916200E+02
 0.45764245785E+02 0.34959485093E+02 0.28967952808E+02 0.27231741204E+02 0.28967952808E+02
 0.34959485093E+02 0.45764245785E+02 0.78666916200E+02 0.16891954395E+03 0.32341908653E+03
 0.50730978022E+03 0.65780392440E+03 0.38305670767E+03 0.35066651136E+03 0.26760694858E+03
 0.16891953399E+03 0.91328032866E+02 0.51687550643E+02 0.37976020251E+02 0.29883847088E+02
 0.25499876605E+02 0.24233097306E+02 0.25499876605E+02 0.29883847088E+02 0.37976020251E+02
 0.51687550643E+02 0.91328032866E+02 0.16891953399E+03 0.26760694858E+03 0.35066651136E+03
 0.16759619753E+03 0.15333934213E+03 0.11787089700E+03 0.78666899888E+02 0.51687544292E+02
 0.39095951411E+02 0.30876028966E+02 0.25269924437E+02 0.22373857337E+02 0.21531227258E+02
 0.22373857337E+02 0.25269924437E+02 0.30876028966E+02 0.39095951411E+02 0.51687544292E+02
 0.78666899888E+02 0.11787089700E+03 0.15333934213E+03 0.70008829201E+02 0.65778849877E+02
 0.55826434097E+02 0.45764226398E+02 0.37976010824E+02 0.30876025890E+02 0.25304559360E+02
 0.21734875567E+02 0.19900578352E+02 0.19353821930E+02 0.19900578352E+02 0.21734875567E+02
 0.25304559360E+02 0.30876025890E+02 0.37976010824E+02 0.45764226398E+02 0.55826434097E+02
 0.65778849877E+02 0.43807413822E+02 0.42688848417E+02 0.39538410380E+02 0.34959464532E+02
 0.29883836487E+02 0.25269920188E+02 0.21734874394E+02 0.19419531867E+02 0.18162967561E+02
 0.17769742343E+02 0.18162967561E+02 0.19419531867E+02 0.21734874394E+02 0.25269920188E+02
 0.29883836487E+02 0.34959464532E+02 0.39538410380E+02 0.42688848417E+02 0.35388141516E+02
 0.34539283174E+02 0.32210726753E+02 0.28967931834E+02 0.25499865592E+02 0.22373852676E+02
 0.19900576766E+02 0.18162967149E+02 0.17139126555E+02 0.16800663181E+02 0.17139126555E+02
 0.18162967149E+02 0.19900576766E+02 0.22373852676E+02 0.25499865592E+02 0.28967931834E+02
 0.32210726753E+02 0.34539283174E+02 0.32898459081E+02 0.32137643065E+02 0.30069873766E+02
 0.27231720117E+02 0.24233086180E+02 0.21531222484E+02 0.19353820231E+02 0.17769741817E+02
 0.16800663067E+02 0.16472690602E+02 0.16800663067E+02 0.17769741817E+02 0.19353820231E+02
 0.21531222484E+02 0.24233086180E+02 0.27231720117E+02 0.30069873766E+02 0.32137643065E+02
 0.35388141516E+02 0.34539283174E+02 0.32210726753E+02 0.28967931834E+02 0.25499865592E+02
 0.22373852676E+02 0.19900576766E+02 0.18162967149E+02 0.17139126555E+02 0.16800663181E+02
 0.17139126555E+02 0.18162967149E+02 0.19900576766E+02 0.22373852676E+02 0.25499865592E+02
 0.28967931834E+02 0.32210726753E+02 0.34539283174E+02 0.43807413822E+02 0.42688848417E+02
 0.39538410380E+02 0.34959464532E+02 0.29883836487E+02 0.25269920188E+02 0.21734874394E+02
 0.19419531867E+02 0.18162967561E+02 0.17769742343E+02 0.18162967561E+02 0.19419531867E+02
 0.21734874394E+02 0.25269920188E+02 0.29883836487E+02 0.34959464532E+02 0.39538410380E+02
 0.42688848417E+02 0.70008829201E+02 0.65778849877E+02 0.55826434097E+02 0.45764226398E+02
 0.37976010824E+02 0.30876025890E+02 0.25304559360E+02 0.21734875567E+02 0.19900578352E+02
 0.19353821930E+02 0.19900578352E+02 0.21734875567E+02 0.25304559360E+02 0.30876025890E+02
 0.37976010824E+02 0.45764226398E+02 0.55826434097E+02 0.65778849877E+02 0.16759619753E+03
 0.15333934213E+03 0.11787089700E+03 0.78666899888E+02 0.51687544292E+02 0.39095951411E+02
 0.30876028966E+02 0.25269924437E+02 0.22373857337E+02 0.21531227258E+02 0.22373857337E+02
 0.25269924437E+02 0.30876028966E+02 0.39095951411E+02 0.51687544292E+02 0.78666899888E+02
 0.11787089700E+03 0.15333934213E+03 0.38305670767E+03 0.35066651136E+03 0.26760694858E+03
 0.16891953399E+03 0.91328032866E+02 0.51687550643E+02 0.37976020251E+02 0.29883847088E+02
 0.25499876605E+02 0.24233097306E+02 0.25499876605E+02 0.29883847088E+02 0.37976020251E+02
 0.51687550643E+02 0.91328032866E+02 0.16891953399E+03 0.26760694858E+03 0.35066651136E+03
 0.71594201560E+03 0.65780392440E+03 0.50730978022E+03 0.32341908653E+03 0.16891954395E+03
 0.78666916200E+02 0.45764245785E+02 0.34959485093E+02 0.28967952808E+02 0.27231741204E+02
 0.28967952808E+02 0.34959485093E+02 0.45764245785E+02 0.78666916200E+02 0.16891954395E+03
 0.32341908653E+03 0.50730978022E+03 0.65780392440E+03 0.10996617646E+04 0.10121115250E+04
 0.78559921344E+03 0.50730979194E+03 0.26760697026E+03 0.11787092503E+03 0.55826465207E+02
 0.39538442664E+02 0.32210759448E+02 0.30069906575E+02 0.32210759448E+02 0.39538442664E+02
 0.55826465207E+02 0.11787092503E+03 0.26760697026E+03 0.50730979194E+03 0.78559921344E+03
 0.10121115250E+04 0.14131711450E+04 0.13011319912E+04 0.10121115347E+04 0.65780394581E+03
 0.35066654273E+03 0.15333937985E+03 0.65778890675E+02 0.42688890389E+02 0.34539325558E+02
 0.32137685563E+02 0.34539325558E+02 0.42688890389E+02 0.65778890675E+02 0.15333937985E+03
 0.35066654273E+03 0.65780394581E+03 0.10121115347E+04 0.13011319912E+04 0.14332722471E+04
 0.13188046740E+04 0.10242185201E+04 0.66454354626E+03 0.35407837898E+03 0.15509317763E+03
 0.66662731752E+02 0.43313591167E+02 0.35217693102E+02 0.32834714906E+02 0.35217693102E+02
 0.43313591167E+02 0.66662731752E+02 0.15509317763E+03 0.35407837898E+03 0.66454354626E+03
 0.10242185201E+04 0.13188046740E+04 0.13188046704E+04 0.12134634635E+04 0.94202327272E+03
 0.61015962141E+03 0.32402027909E+03 0.14208128045E+03 0.62931072546E+02 0.42282550597E+02
 0.34449733157E+02 0.32151767133E+02 0.34449733157E+02 0.42282550597E+02 0.62931072546E+02
 0.14208128045E+03 0.32402027909E+03 0.61015962141E+03 0.94202327272E+03 0.12134634635E+04
 0.10242185075E+04 0.94202326366E+03 0.72967650874E+03 0.46967396898E+03 0.24717104127E+03
 0.10985677227E+03 0.54193122253E+02 0.39367382023E+02 0.32337962244E+02 0.30291205667E+02
 0.32337962244E+02 0.39367382023E+02 0.54193122253E+02 0.10985677227E+03 0.24717104127E+03
 0.46967396898E+03 0.72967650874E+03 0.94202326366E+03 0.66454352272E+03 0.61015960140E+03
 0.46967395803E+03 0.29880454956E+03 0.15646461198E+03 0.74590122295E+02 0.45361330060E+02
 0.35118191838E+02 0.29384529105E+02 0.27726449586E+02 0.29384529105E+02 0.35118191838E+02
 0.45361330060E+02 0.74590122295E+02 0.15646461198E+03 0.29880454956E+03 0.46967395803E+03
 0.61015960140E+03 0.35407834615E+03 0.32402024980E+03 0.24717102104E+03 0.15646460270E+03
 0.86000068707E+02 0.50681216703E+02 0.38161880541E+02 0.30393626219E+02 0.26209895342E+02
 0.25002052844E+02 0.26209895342E+02 0.30393626219E+02 0.38161880541E+02 0.50681216703E+02
 0.86000068707E+02 0.15646460270E+03 0.24717102104E+03 0.32402024980E+03 0.15509313891E+03
 0.14208124527E+03 0.10985674615E+03 0.74590107122E+02 0.50681210805E+02 0.39311078526E+02
 0.31431554167E+02 0.26087823951E+02 0.23334727398E+02 0.22533959036E+02 0.23334727398E+02
 0.26087823951E+02 0.31431554167E+02 0.39311078526E+02 0.50681210805E+02 0.74590107122E+02
 0.10985674615E+03 0.14208124527E+03 0.66662690172E+02 0.62931034502E+02 0.54193093273E+02
 0.45361312025E+02 0.38161871781E+02 0.31431551306E+02 0.26157771819E+02 0.22783630127E+02
 0.21051825754E+02 0.20535942485E+02 0.21051825754E+02 0.22783630127E+02 0.26157771819E+02
 0.31431551306E+02 0.38161871781E+02 0.45361312025E+02 0.54193093273E+02 0.62931034502E+02
 0.43313548468E+02 0.42282511435E+02 0.39367351924E+02 0.35118172685E+02 0.30393616341E+02
 0.26087819971E+02 0.22783629008E+02 0.20618794629E+02 0.19444796072E+02 0.19077738117E+02
 0.19444796072E+02 0.20618794629E+02 0.22783629008E+02 0.26087819971E+02 0.30393616341E+02
 0.35118172685E+02 0.39367351924E+02 0.42282511435E+02 0.35217649981E+02 0.34449693573E+02
 0.32337931723E+02 0.29384509529E+02 0.26209885041E+02 0.23334722996E+02 0.21051824213E+02
 0.19444795650E+02 0.18497223078E+02 0.18183934597E+02 0.18497223078E+02 0.19444795650E+02
 0.21051824213E+02 0.23334722996E+02 0.26209885041E+02 0.29384509529E+02 0.32337931723E+02
 0.34449693573E+02 0.32834671662E+02 0.32151727425E+02 0.30291175023E+02 0.27726429887E+02
 0.25002042420E+02 0.22533954510E+02 0.20535940820E+02 0.19077737572E+02 0.18183934474E+02
 0.17881158348E+02 0.18183934474E+02 0.19077737572E+02 0.20535940820E+02 0.22533954510E+02
 0.25002042420E+02 0.27726429887E+02 0.30291175023E+02 0.32151727425E+02 0.35217649981E+02
 0.34449693573E+02 0.32337931723E+02 0.29384509529E+02 0.26209885041E+02 0.23334722996E+02
 0.21051824213E+02 0.19444795650E+02 0.18497223078E+02 0.18183934597E+02 0.18497223078E+02
 0.19444795650E+02 0.21051824213E+02 0.23334722996E+02 0.26209885041E+02 0.29384509529E+02
 0.32337931723E+02 0.34449693573E+02 0.43313548468E+02 0.42282511435E+02 0.39367351924E+02
 0.35118172685E+02 0.30393616341E+02 0.26087819971E+02 0.22783629008E+02 0.20618794629E+02
 0.19444796072E+02 0.19077738117E+02 0.19444796072E+02 0.20618794629E+02 0.22783629008E+02
 0.26087819971E+02 0.30393616341E+02 0.35118172685E+02 0.39367351924E+02 0.42282511435E+02
 0.66662690172E+02 0.62931034502E+02 0.54193093273E+02 0.45361312025E+02 0.38161871781E+02
 0.31431551306E+02 0.26157771819E+02 0.22783630127E+02 0.21051825754E+02 0.20535942485E+02
 0.21051825754E+02 0.22783630127E+02 0.26157771819E+02 0.31431551306E+02 0.38161871781E+02
 0.45361312025E+02 0.54193093273E+02 0.62931034502E+02 0.15509313891E+03 0.14208124527E+03
 0.10985674615E+03 0.74590107122E+02 0.50681210805E+02 0.39311078526E+02 0.31431554167E+02
 0.26087823951E+02 0.23334727398E+02 0.22533959036E+02 0.23334727398E+02 0.26087823951E+02
 0.31431554167E+02 0.39311078526E+02 0.50681210805E+02 0.74590107122E+02 0.10985674615E+03
 0.14208124527E+03 0.35407834615E+03 0.32402024980E+03 0.24717102104E+03 0.15646460270E+03
 0.86000068707E+02 0.50681216703E+02 0.38161880541E+02 0.30393626219E+02 0.26209895342E+02
 0.25002052844E+02 0.26209895342E+02 0.30393626219E+02 0.38161880541E+02 0.50681216703E+02
 0.86000068707E+02 0.15646460270E+03 0.24717102104E+03 0.32402024980E+03 0.66454352272E+03
 0.61015960140E+03 0.46967395803E+03 0.29880454956E+03 0.15646461198E+03 0.74590122295E+02
 0.45361330060E+02 0.35118191838E+02 0.29384529105E+02 0.27726449586E+02 0.29384529105E+02
 0.35118191838E+02 0.45361330060E+02 0.74590122295E+02 0.15646461198E+03 0.29880454956E+03
 0.46967395803E+03 0.61015960140E+03 0.10242185075E+04 0.94202326366E+03 0.72967650874E+03
 0.46967396898E+03 0.24717104127E+03 0.10985677227E+03 0.54193122253E+02 0.39367382023E+02
 0.32337962244E+02 0.30291205667E+02 0.32337962244E+02 0.39367382023E+02 0.54193122253E+02
 0.10985677227E+03 0.24717104127E+03 0.46967396898E+03 0.72967650874E+03 0.94202326366E+03
 0.13188046704E+04 0.12134634635E+04 0.94202327272E+03 0.61015962141E+03 0.32402027909E+03
 0.14208128045E+03 0.62931072546E+02 0.42282550597E+02 0.34449733157E+02 0.32151767133E+02
 0.34449733157E+02 0.42282550597E+02 0.62931072546E+02 0.14208128045E+03 0.32402027909E+03
 0.61015962141E+03 0.94202327272E+03 0.12134634635E+04 0.11717416204E+04 0.10759703474E+04
 0.83035805305E+03 0.53298663303E+03 0.28056874112E+03 0.12392100946E+03 0.58392769200E+02
 0.41324268583E+02 0.34008057304E+02 0.31872771359E+02 0.34008057304E+02 0.41324268583E+02
 0.58392769200E+02 0.12392100946E+03 0.28056874112E+03 0.53298663303E+03 0.83035805305E+03
 0.10759703474E+04 0.10759703445E+04 0.98794799818E+03 0.76200703490E+03 0.48828379866E+03
 0.25646633265E+03 0.11399958159E+03 0.55787757290E+02 0.40438573320E+02 0.33379835331E+02
 0.31324359681E+02 0.33379835331E+02 0.40438573320E+02 0.55787757290E+02 0.11399958159E+03
 0.25646633265E+03 0.48828379866E+03 0.76200703490E+03 0.98794799818E+03 0.83035804268E+03
 0.76200702745E+03 0.58630165441E+03 0.37359994129E+03 0.19544806087E+03 0.89783166746E+02
 0.49727266233E+02 0.37935430077E+02 0.31644523524E+02 0.29821711566E+02 0.31644523524E+02
 0.37935430077E+02 0.49727266233E+02 0.89783166746E+02 0.19544806087E+03 0.37359994129E+03
 0.58630165441E+03 0.76200702745E+03 0.53298661373E+03 0.48828378227E+03 0.37359993235E+03
 0.23623537780E+03 0.12497328115E+03 0.64082674130E+02 0.43379019658E+02 0.34286376053E+02
 0.29195679217E+02 0.27726020682E+02 0.29195679217E+02 0.34286376053E+02 0.43379019658E+02
 0.64082674130E+02 0.12497328115E+03 0.23623537780E+03 0.37359993235E+03 0.48828378227E+03
 0.28056871432E+03 0.25646630877E+03 0.19544804444E+03 0.12497327366E+03 0.72307311467E+02
 0.47298908519E+02 0.37171485032E+02 0.30220206409E+02 0.26526986912E+02 0.25459182157E+02
 0.26526986912E+02 0.30220206409E+02 0.37171485032E+02 0.47298908519E+02 0.72307311467E+02
 0.12497327366E+03 0.19544804444E+03 0.25646630877E+03 0.12392097797E+03 0.11399955300E+03
 0.89783145616E+02 0.64082661938E+02 0.47298903819E+02 0.38293675039E+02 0.31218955595E+02
 0.26492251186E+02 0.24063137060E+02 0.23353279789E+02 0.24063137060E+02 0.26492251186E+02
 0.31218955595E+02 0.38293675039E+02 0.47298903819E+02 0.64082661938E+02 0.89783145616E+02
 0.11399955300E+03 0.58392735429E+02 0.55787726437E+02 0.49727242832E+02 0.43379005194E+02
 0.37171478059E+02 0.31218953323E+02 0.26576326133E+02 0.23598835213E+02 0.22057446942E+02
 0.21594288722E+02 0.22057446942E+02 0.23598835213E+02 0.26576326133E+02 0.31218953323E+02
 0.37171478059E+02 0.43379005194E+02 0.49727242832E+02 0.55787726437E+02 0.41324233873E+02
 0.40438541526E+02 0.37935405735E+02 0.34286360649E+02 0.30220198496E+02 0.26492247974E+02
 0.23598834273E+02 0.21670735602E+02 0.20605166238E+02 0.20267671856E+02 0.20605166238E+02
 0.21670735602E+02 0.23598834273E+02 0.26492247974E+02 0.30220198496E+02 0.34286360649E+02
 0.37935405735E+02 0.40438541526E+02 0.34008022175E+02 0.33379803118E+02 0.31644498763E+02
 0.29195663393E+02 0.26526978580E+02 0.24063133429E+02 0.22057445583E+02 0.20605165819E+02
 0.19727003072E+02 0.19432342651E+02 0.19727003072E+02 0.20605165819E+02 0.22057445583E+02
 0.24063133429E+02 0.26526978580E+02 0.29195663393E+02 0.31644498763E+02 0.33379803118E+02
 0.31872736090E+02 0.31324327329E+02 0.29821686666E+02 0.27726004719E+02 0.25459173685E+02
 0.23353276019E+02 0.21594287223E+02 0.20267671298E+02 0.19432342512E+02 0.19145157532E+02
 0.19432342512E+02 0.20267671298E+02 0.21594287223E+02 0.23353276019E+02 0.25459173685E+02
 0.27726004719E+02 0.29821686666E+02 0.31324327329E+02 0.34008022175E+02 0.33379803118E+02
 0.31644498763E+02 0.29195663393E+02 0.26526978580E+02 0.24063133429E+02 0.22057445583E+02
 0.20605165819E+02 0.19727003072E+02 0.19432342651E+02 0.19727003072E+02 0.20605165819E+02
 0.22057445583E+02 0.24063133429E+02 0.26526978580E+02 0.29195663393E+02 0.31644498763E+02
 0.33379803118E+02 0.41324233873E+02 0.40438541526E+02 0.37935405735E+02 0.34286360649E+02
 0.30220198496E+02 0.26492247974E+02 0.23598834273E+02 0.21670735602E+02 0.20605166238E+02
 0.20267671856E+02 0.20605166238E+02 0.21670735602E+02 0.23598834273E+02 0.26492247974E+02
 0.30220198496E+02 0.34286360649E+02 0.37935405735E+02 0.40438541526E+02 0.58392735429E+02
 0.55787726437E+02 0.49727242832E+02 0.43379005194E+02 0.37171478059E+02 0.31218953323E+02
 0.26576326133E+02 0.23598835213E+02 0.22057446942E+02 0.21594288722E+02 0.22057446942E+02
 0.23598835213E+02 0.26576326133E+02 0.31218953323E+02 0.37171478059E+02 0.43379005194E+02
 0.49727242832E+02 0.55787726437E+02 0.12392097797E+03 0.11399955300E+03 0.89783145616E+02
 0.64082661938E+02 0.47298903819E+02 0.38293675039E+02 0.31218955595E+02 0.26492251186E+02
 0.24063137060E+02 0.23353279789E+02 0.24063137060E+02 0.26492251186E+02 0.31218955595E+02
 0.38293675039E+02 0.47298903819E+02 0.64082661938E+02 0.89783145616E+02 0.11399955300E+03
 0.28056871432E+03 0.25646630877E+03 0.19544804444E+03 0.12497327366E+03 0.72307311467E+02
 0.47298908519E+02 0.37171485032E+02 0.30220206409E+02 0.26526986912E+02 0.25459182157E+02
 0.26526986912E+02 0.30220206409E+02 0.37171485032E+02 0.47298908519E+02 0.72307311467E+02
 0.12497327366E+03 0.19544804444E+03 0.25646630877E+03 0.53298661373E+03 0.48828378227E+03
 0.37359993235E+03 0.23623537780E+03 0.12497328115E+03 0.64082674130E+02 0.43379019658E+02
 0.34286376053E+02 0.29195679217E+02 0.27726020682E+02 0.29195679217E+02 0.34286376053E+02
 0.43379019658E+02 0.64082674130E+02 0.12497328115E+03 0.23623537780E+03 0.37359993235E+03
 0.48828378227E+03 0.83035804268E+03 0.76200702745E+03 0.58630165441E+03 0.37359994129E+03
 0.19544806087E+03 0.89783166746E+02 0.49727266233E+02 0.37935430077E+02 0.31644523524E+02
 0.29821711566E+02 0.31644523524E+02 0.37935430077E+02 0.49727266233E+02 0.89783166746E+02
 0.19544806087E+03 0.37359994129E+03 0.58630165441E+03 0.76200702745E+03 0.10759703445E+04
 0.98794799818E+03 0.76200703490E+03 0.48828379866E+03 0.25646633265E+03 0.11399958159E+03
 0.55787757290E+02 0.40438573320E+02 0.33379835331E+02 0.31324359681E+02 0.33379835331E+02
 0.40438573320E+02 0.55787757290E+02 0.11399958159E+03 0.25646633265E+03 0.48828379866E+03
 0.76200703490E+03 0.98794799818E+03 0.83491455651E+03 0.76387463856E+03 0.58302863561E+03
 0.36783248215E+03 0.19121168060E+03 0.88351279049E+02 0.49822099710E+02 0.38380469562E+02
 0.32237955319E+02 0.30461431651E+02 0.32237955319E+02 0.38380469562E+02 0.49822099710E+02
 0.88351279049E+02 0.19121168060E+03 0.36783248215E+03 0.58302863561E+03 0.76387463856E+03
 0.76387463646E+03 0.69877708129E+03 0.53301647547E+03 0.33590683232E+03 0.17483793634E+03
 0.82252051920E+02 0.48405270489E+02 0.37687101700E+02 0.31782367354E+02 0.30076084490E+02
 0.31782367354E+02 0.37687101700E+02 0.48405270489E+02 0.82252051920E+02 0.17483793634E+03
 0.33590683232E+03 0.53301647547E+03 0.69877708129E+03 0.58302862818E+03 0.53301647014E+03
 0.40573100790E+03 0.25509666903E+03 0.13416736228E+03 0.67761278706E+02 0.44988561342E+02
 0.35730067166E+02 0.30515548232E+02 0.29010929232E+02 0.30515548232E+02 0.35730067166E+02
 0.44988561342E+02 0.67761278706E+02 0.13416736228E+03 0.25509666903E+03 0.40573100790E+03
 0.53301647014E+03 0.36783246840E+03 0.33590682068E+03 0.25509666272E+03 0.16116023022E+03
 0.89123750438E+02 0.53152376374E+02 0.40580803015E+02 0.32881513707E+02 0.28706525424E+02
 0.27501345310E+02 0.28706525424E+02 0.32881513707E+02 0.40580803015E+02 0.53152376374E+02
 0.89123750438E+02 0.16116023022E+03 0.25509666272E+03 0.33590682068E+03 0.19121166168E+03
 0.17483791952E+03 0.13416735079E+03 0.89123745261E+02 0.57803666142E+02 0.43647599560E+02
 0.35461614573E+02 0.29708037671E+02 0.26704904375E+02 0.25833684312E+02 0.26704904375E+02
 0.29708037671E+02 0.35461614573E+02 0.43647599560E+02 0.57803666142E+02 0.89123745261E+02
 0.13416735079E+03 0.17483791952E+03 0.88351256974E+02 0.82252031944E+02 0.67761264061E+02
 0.53152368041E+02 0.43647596404E+02 0.36503402342E+02 0.30631414470E+02 0.26790716989E+02
 0.24824789087E+02 0.24246938682E+02 0.24824789087E+02 0.26790716989E+02 0.30631414470E+02
 0.36503402342E+02 0.43647596404E+02 0.53152368041E+02 0.67761264061E+02 0.82252031944E+02
 0.49822076131E+02 0.48405249010E+02 0.44988545194E+02 0.40580793179E+02 0.35461609914E+02
 0.30631412967E+02 0.26901080825E+02 0.24510883159E+02 0.23265474232E+02 0.22888457559E+02
 0.23265474232E+02 0.24510883159E+02 0.26901080825E+02 0.30631412967E+02 0.35461609914E+02
 0.40580793179E+02 0.44988545194E+02 0.48405249010E+02 0.38380445301E+02 0.37687079538E+02
 0.35730050336E+02 0.32881503188E+02 0.29708032330E+02 0.26790714803E+02 0.24510882476E+02
 0.22974667466E+02 0.22114882249E+02 0.21840210091E+02 0.22114882249E+02 0.22974667466E+02
 0.24510882476E+02 0.26790714803E+02 0.29708032330E+02 0.32881503188E+02 0.35730050336E+02
 0.37687079538E+02 0.32237930676E+02 0.31782344810E+02 0.30515531020E+02 0.28706514524E+02
 0.26704898652E+02 0.24824786520E+02 0.23265473168E+02 0.22114881867E+02 0.21407855898E+02
 0.21168392709E+02 0.21407855898E+02 0.22114881867E+02 0.23265473168E+02 0.24824786520E+02
 0.26704898652E+02 0.28706514524E+02 0.30515531020E+02 0.31782344810E+02 0.30461406862E+02
 0.30076061801E+02 0.29010911876E+02 0.27501334265E+02 0.25833678444E+02 0.24246935970E+02
 0.22888456350E+02 0.21840209564E+02 0.21168392564E+02 0.20935202129E+02 0.21168392564E+02
 0.21840209564E+02 0.22888456350E+02 0.24246935970E+02 0.25833678444E+02 0.27501334265E+02
 0.29010911876E+02 0.30076061801E+02 0.32237930676E+02 0.31782344810E+02 0.30515531020E+02
 0.28706514524E+02 0.26704898652E+02 0.24824786520E+02 0.23265473168E+02 0.22114881867E+02
 0.21407855898E+02 0.21168392709E+02 0.21407855898E+02 0.22114881867E+02 0.23265473168E+02
 0.24824786520E+02 0.26704898652E+02 0.28706514524E+02 0.30515531020E+02 0.31782344810E+02
 0.38380445301E+02 0.37687079538E+02 0.35730050336E+02 0.32881503188E+02 0.29708032330E+02
 0.26790714803E+02 0.24510882476E+02 0.22974667466E+02 0.22114882249E+02 0.21840210091E+02
 0.22114882249E+02 0.22974667466E+02 0.24510882476E+02 0.26790714803E+02 0.29708032330E+02
 0.32881503188E+02 0.35730050336E+02 0.37687079538E+02 0.49822076131E+02 0.48405249010E+02
 0.44988545194E+02 0.40580793179E+02 0.35461609914E+02 0.30631412967E+02 0.26901080825E+02
 0.24510883159E+02 0.23265474232E+02 0.22888457559E+02 0.23265474232E+02 0.24510883159E+02
 0.26901080825E+02 0.30631412967E+02 0.35461609914E+02 0.40580793179E+02 0.44988545194E+02
 0.48405249010E+02 0.88351256974E+02 0.82252031944E+02 0.67761264061E+02 0.53152368041E+02
 0.43647596404E+02 0.36503402342E+02 0.30631414470E+02 0.26790716989E+02 0.24824789087E+02
 0.24246938682E+02 0.24824789087E+02 0.26790716989E+02 0.30631414470E+02 0.36503402342E+02
 0.43647596404E+02 0.53152368041E+02 0.67761264061E+02 0.82252031944E+02 0.19121166168E+03
 0.17483791952E+03 0.13416735079E+03 0.89123745261E+02 0.57803666142E+02 0.43647599560E+02
 0.35461614573E+02 0.29708037671E+02 0.26704904375E+02 0.25833684312E+02 0.26704904375E+02
 0.29708037671E+02 0.35461614573E+02 0.43647599560E+02 0.57803666142E+02 0.89123745261E+02
 0.13416735079E+03 0.17483791952E+03 0.36783246840E+03 0.33590682068E+03 0.25509666272E+03
 0.16116023022E+03 0.89123750438E+02 0.53152376374E+02 0.40580803015E+02 0.32881513707E+02
 0.28706525424E+02 0.27501345310E+02 0.28706525424E+02 0.32881513707E+02 0.40580803015E+02
 0.53152376374E+02 0.89123750438E+02 0.16116023022E+03 0.25509666272E+03 0.33590682068E+03
 0.58302862818E+03 0.53301647014E+03 0.40573100790E+03 0.25509666903E+03 0.13416736228E+03
 0.67761278706E+02 0.44988561342E+02 0.35730067166E+02 0.30515548232E+02 0.29010929232E+02
 0.30515548232E+02 0.35730067166E+02 0.44988561342E+02 0.67761278706E+02 0.13416736228E+03
 0.25509666903E+03 0.40573100790E+03 0.53301647014E+03 0.76387463646E+03 0.69877708129E+03
 0.53301647547E+03 0.33590683232E+03 0.17483793634E+03 0.82252051920E+02 0.48405270489E+02
 0.37687101700E+02 0.31782367354E+02 0.30076084490E+02 0.31782367354E+02 0.37687101700E+02
 0.48405270489E+02 0.82252051920E+02 0.17483793634E+03 0.33590683232E+03 0.53301647547E+03
 0.69877708129E+03 0.51172398794E+03 0.46580368011E+03 0.35050003014E+03 0.21757671564E+03
 0.11489202467E+03 0.61383345526E+02 0.43614378585E+02 0.35113875019E+02 0.30393625673E+02
 0.29037638738E+02 0.30393625673E+02 0.35113875019E+02 0.43614378585E+02 0.61383345526E+02
 0.11489202467E+03 0.21757671564E+03 0.35050003014E+03 0.46580368011E+03 0.46580367881E+03
 0.42398107937E+03 0.31904222394E+03 0.19839938699E+03 0.10593010366E+03 0.58588051905E+02
 0.42851935352E+02 0.34637681834E+02 0.30115217311E+02 0.28815289648E+02 0.30115217311E+02
 0.34637681834E+02 0.42851935352E+02 0.58588051905E+02 0.10593010366E+03 0.19839938699E+03
 0.31904222394E+03 0.42398107937E+03 0.35050002559E+03 0.31904222068E+03 0.24038983133E+03
 0.15098298308E+03 0.84390732598E+02 0.52171535161E+02 0.40651992996E+02 0.33299747816E+02
 0.29340871212E+02 0.28200746730E+02 0.29340871212E+02 0.33299747816E+02 0.40651992996E+02
 0.52171535161E+02 0.84390732598E+02 0.15098298308E+03 0.24038983133E+03 0.31904222068E+03
 0.21757670732E+03 0.19839937996E+03 0.15098297930E+03 0.98681106532E+02 0.62162764144E+02
 0.45786885753E+02 0.37348270468E+02 0.31372594796E+02 0.28242031872E+02 0.27337246650E+02
 0.28242031872E+02 0.31372594796E+02 0.37348270468E+02 0.45786885753E+02 0.62162764144E+02
 0.98681106532E+02 0.15098297930E+03 0.19839937996E+03 0.11489201337E+03 0.10593009365E+03
 0.84390725845E+02 0.62162761163E+02 0.48062679455E+02 0.40079311331E+02 0.33592114899E+02
 0.29266462624E+02 0.27055188754E+02 0.26412787009E+02 0.27055188754E+02 0.29266462624E+02
 0.33592114899E+02 0.40079311331E+02 0.48062679455E+02 0.62162761163E+02 0.84390725845E+02
 0.10593009365E+03 0.61383332501E+02 0.58588040175E+02 0.52171526688E+02 0.45786881052E+02
 0.40079309610E+02 0.34524891495E+02 0.30159770420E+02 0.27392247753E+02 0.25999151103E+02
 0.25591716410E+02 0.25999151103E+02 0.27392247753E+02 0.30159770420E+02 0.34524891495E+02
 0.40079309610E+02 0.45786881052E+02 0.52171526688E+02 0.58588040175E+02 0.43614364764E+02
 0.42851922827E+02 0.40651983727E+02 0.37348264972E+02 0.33592112383E+02 0.30159769624E+02
 0.27591606952E+02 0.26000565519E+02 0.25199300760E+02 0.24962436377E+02 0.25199300760E+02
 0.26000565519E+02 0.27591606952E+02 0.30159769624E+02 0.33592112383E+02 0.37348264972E+02
 0.40651983727E+02 0.42851922827E+02 0.35113860773E+02 0.34637668884E+02 0.33299738122E+02
 0.31372588874E+02 0.29266459683E+02 0.27392246533E+02 0.26000565094E+02 0.25126964877E+02
 0.24674461153E+02 0.24537370542E+02 0.24674461153E+02 0.25126964877E+02 0.26000565094E+02
 0.27392246533E+02 0.29266459683E+02 0.31372588874E+02 0.33299738122E+02 0.34637668884E+02
 0.30393611113E+02 0.30115204047E+02 0.29340861204E+02 0.28242025637E+02 0.27055185499E+02
 0.25999149568E+02 0.25199300021E+02 0.24674460840E+02 0.24385974347E+02 0.24294573073E+02
 0.24385974347E+02 0.24674460840E+02 0.25199300021E+02 0.25999149568E+02 0.27055185499E+02
 0.28242025637E+02 0.29340861204E+02 0.30115204047E+02 0.29037624045E+02 0.28815276251E+02
 0.28200736590E+02 0.27337240281E+02 0.26412783621E+02 0.25591714742E+02 0.24962435506E+02
 0.24537370096E+02 0.24294572940E+02 0.24215478618E+02 0.24294572940E+02 0.24537370096E+02
 0.24962435506E+02 0.25591714742E+02 0.26412783621E+02 0.27337240281E+02 0.28200736590E+02
 0.28815276251E+02 0.30393611113E+02 0.30115204047E+02 0.29340861204E+02 0.28242025637E+02
 0.27055185499E+02 0.25999149568E+02 0.25199300021E+02 0.24674460840E+02 0.24385974347E+02
 0.24294573073E+02 0.24385974347E+02 0.24674460840E+02 0.25199300021E+02 0.25999149568E+02
 0.27055185499E+02 0.28242025637E+02 0.29340861204E+02 0.30115204047E+02 0.35113860773E+02
 0.34637668884E+02 0.33299738122E+02 0.31372588874E+02 0.29266459683E+02 0.27392246533E+02
 0.26000565094E+02 0.25126964877E+02 0.24674461153E+02 0.24537370542E+02 0.24674461153E+02
 0.25126964877E+02 0.26000565094E+02 0.27392246533E+02 0.29266459683E+02 0.31372588874E+02
 0.33299738122E+02 0.34637668884E+02 0.43614364764E+02 0.42851922827E+02 0.40651983727E+02
 0.37348264972E+02 0.33592112383E+02 0.30159769624E+02 0.27591606952E+02 0.26000565519E+02
 0.25199300760E+02 0.24962436377E+02 0.25199300760E+02 0.26000565519E+02 0.27591606952E+02
 0.30159769624E+02 0.33592112383E+02 0.37348264972E+02 0.40651983727E+02 0.42851922827E+02
 0.61383332501E+02 0.58588040175E+02 0.52171526688E+02 0.45786881052E+02 0.40079309610E+02
 0.34524891495E+02 0.30159770420E+02 0.27392247753E+02 0.25999151103E+02 0.25591716410E+02
 0.25999151103E+02 0.27392247753E+02 0.30159770420E+02 0.34524891495E+02 0.40079309610E+02
 0.45786881052E+02 0.52171526688E+02 0.58588040175E+02 0.11489201337E+03 0.10593009365E+03
 0.84390725845E+02 0.62162761163E+02 0.48062679455E+02 0.40079311331E+02 0.33592114899E+02
 0.29266462624E+02 0.27055188754E+02 0.26412787009E+02 0.27055188754E+02 0.29266462624E+02
 0.33592114899E+02 0.40079311331E+02 0.48062679455E+02 0.62162761163E+02 0.84390725845E+02
 0.10593009365E+03 0.21757670732E+03 0.19839937996E+03 0.15098297930E+03 0.98681106532E+02
 0.62162764144E+02 0.45786885753E+02 0.37348270468E+02 0.31372594796E+02 0.28242031872E+02
 0.27337246650E+02 0.28242031872E+02 0.31372594796E+02 0.37348270468E+02 0.45786885753E+02
 0.62162764144E+02 0.98681106532E+02 0.15098297930E+03 0.19839937996E+03 0.35050002559E+03
 0.31904222068E+03 0.24038983133E+03 0.15098298308E+03 0.84390732598E+02 0.52171535161E+02
 0.40651992996E+02 0.33299747816E+02 0.29340871212E+02 0.28200746730E+02 0.29340871212E+02
 0.33299747816E+02 0.40651992996E+02 0.52171535161E+02 0.84390732598E+02 0.15098298308E+03
 0.24038983133E+03 0.31904222068E+03 0.46580367881E+03 0.42398107937E+03 0.31904222394E+03
 0.19839938699E+03 0.10593010366E+03 0.58588051905E+02 0.42851935352E+02 0.34637681834E+02
 0.30115217311E+02 0.28815289648E+02 0.30115217311E+02 0.34637681834E+02 0.42851935352E+02
 0.58588051905E+02 0.10593010366E+03 0.19839938699E+03 0.31904222394E+03 0.42398107937E+03
 0.26428371555E+03 0.23963054395E+03 0.17922735171E+03 0.11340893772E+03 0.67662256885E+02