    5    5  100    2
  0.2199349E+02  0.2496087E-09  0.2496087E-09  0.1765000E-08  0.8000000E-15
 1.0E-4
  CAR 
 clean Ni(100) surface                   
   50   15   33
 
  0.3742002E-15  0.3742002E-15  0.1262379E-14  0.1234568E-01
   1       -8.5270     -8.5463
   2       -7.3451     -7.3531
   3       -5.6763     -5.6493
   4       -4.5371     -4.3463
   5       -4.4567     -4.1753
   6       -4.0175     -3.5010
   7       -3.6548     -3.1208
   8       -3.1447     -2.5337
   9       -2.6648     -2.0449
  10       -2.4331     -1.8071
  11       -2.2958     -1.6219
  12       -2.2958     -1.6219
  13       -1.9207     -1.2681
  14       -1.9207     -1.2158
  15       -1.7520     -1.2158
  16       -1.4771     -0.9647
  17       -1.3287     -0.9314
  18       -1.3287     -0.7602
  19       -1.2931     -0.6460
  20       -1.2418     -0.5987
  21       -1.1722     -0.5987
  22       -1.0790     -0.4479
  23       -0.8136     -0.1864
  24       -0.7999     -0.0210
  25       -0.7999     -0.0210
  26       -0.6327      0.0886
  27       -0.5668      0.1240
  28       -0.5292      0.2459
  29       -0.5292      0.2459
  30        0.5668      0.6236
  31        1.9269      1.9231
  32        4.8218      4.7626
  33        5.9564      5.8939
 
  0.1111111E+00  0.3677614E-15  0.1262379E-14  0.4938272E-01
   1       -8.2151     -8.2335
   2       -7.0532     -7.0579
   3       -5.4247     -5.3875
   4       -4.3439     -4.1266
   5       -4.2710     -3.9898
   6       -3.9177     -3.4055
   7       -3.5695     -3.0425
   8       -3.0921     -2.4887
   9       -2.6572     -2.0385
  10       -2.3634     -1.7344
  11       -2.3171     -1.6543
  12       -2.2551     -1.5812
  13       -2.1376     -1.5348
  14       -1.9467     -1.3747
  15       -1.8653     -1.2593
  16       -1.5376     -0.9260
  17       -1.4930     -0.8844
  18       -1.4132     -0.8144
  19       -1.2985     -0.7383
  20       -1.2751     -0.6834
  21       -1.1184     -0.5376
  22       -1.0414     -0.3928
  23       -1.0296     -0.3521
  24       -1.0119     -0.3370
  25       -0.7210     -0.0167
  26       -0.7132      0.0011
  27       -0.5968      0.0189
  28       -0.5088      0.1112
  29       -0.4530      0.2570
  30        1.1753      1.3779
  31        2.6253      2.7352
  32        5.1177      5.0612
  33        6.2927      6.2357
 
  0.2222222E+00  0.4024558E-15  0.1262379E-14  0.4938272E-01
   1       -7.3238     -7.3348
   2       -6.2557     -6.2379
   3       -4.8501     -4.7389
   4       -3.9750     -3.6585
   5       -3.8790     -3.5296
   6       -3.6270     -3.1650
   7       -3.2309     -2.7854
   8       -2.8345     -2.3038
   9       -2.6878     -2.0934
  10       -2.3135     -1.7686
  11       -2.2845     -1.6860
  12       -2.2410     -1.6308
  13       -2.2112     -1.6042
  14       -2.1690     -1.5042
  15       -2.0376     -1.3929
  16       -1.8078     -1.1912
  17       -1.7482     -1.0914
  18       -1.6827     -1.0632
  19       -1.5176     -0.8846
  20       -1.2111     -0.6539
  21       -1.1854     -0.5930
  22       -1.1533     -0.5752
  23       -1.1384     -0.4302
  24       -0.9347     -0.4085
  25       -0.8717     -0.1555
  26       -0.7207      0.0042
  27       -0.5672      0.1820
  28       -0.5504      0.1963
  29        0.3816      0.7384
  30        2.3354      2.5388
  31        4.0594      4.2029
  32        5.9856      5.9344
  33        7.2938      7.2516
 
  0.3333333E+00  0.3885781E-15  0.1262379E-14  0.4938272E-01
   1       -6.0256     -5.9986
   2       -5.2799     -5.1601
   3       -4.4879     -4.1893
   4       -3.8875     -3.4704
   5       -3.5953     -3.1356
   6       -3.2125     -2.8575
   7       -2.7259     -2.3243
   8       -2.6997     -2.1533
   9       -2.4084     -1.9001
  10       -2.3645     -1.8565
  11       -2.3074     -1.7377
  12       -2.1865     -1.5708
  13       -2.1742     -1.5623
  14       -2.1140     -1.5357
  15       -2.0583     -1.4821
  16       -1.8879     -1.2987
  17       -1.8224     -1.2521
  18       -1.7793     -1.2127
  19       -1.7317     -1.1661
  20       -1.3760     -0.7514
  21       -1.2653     -0.5532
  22       -0.9034     -0.3048
  23       -0.8960     -0.1728
  24       -0.7420     -0.1581
  25       -0.7235     -0.0283
  26       -0.6442      0.0344
  27       -0.5725      0.0828
  28       -0.5232      0.1703
  29        1.3482      1.5919
  30        3.5133      3.6650
  31        5.3532      5.5706
  32        5.4798      5.6061
  33        6.8882      7.1121
 
  0.4444444E+00  0.3885781E-15  0.1262379E-14  0.4938272E-01
   1       -4.8303     -4.6285
   2       -4.7167     -4.4075
   3       -4.4029     -4.0520
   4       -3.9708     -3.5574
   5       -3.6218     -3.2833
   6       -2.8075     -2.3892
   7       -2.7569     -2.1886
   8       -2.5074     -2.0116
   9       -2.4540     -1.9514
  10       -2.3303     -1.7947
  11       -2.2874     -1.6923
  12       -2.2760     -1.6839
  13       -2.2248     -1.6641
  14       -2.1360     -1.5758
  15       -1.9527     -1.5639
  16       -1.9443     -1.3478
  17       -1.9222     -1.2441
  18       -1.5271     -0.8943
  19       -1.2869     -0.8222
  20       -1.2057     -0.4814
  21       -0.9061     -0.2488
  22       -0.7985     -0.1656
  23       -0.7957     -0.0561
  24       -0.6548      0.0774
  25       -0.6061      0.1331
  26       -0.0530      0.2003
  27       -0.0082      0.4304
  28        0.2597      0.7396
  29        1.5355      1.7352
  30        1.9726      2.3177
  31        4.5232      4.7548
  32        4.6974      4.8972
  33        6.7938      7.0282
 
  0.1111111E+00  0.1111111E+00  0.1262379E-14  0.4938272E-01
   1       -7.9079     -7.9251
   2       -6.7647     -6.7663
   3       -5.1742     -5.1282
   4       -4.1615     -3.9110
   5       -4.0766     -3.8132
   6       -3.8154     -3.3020
   7       -3.4968     -2.9674
   8       -3.0654     -2.4624
   9       -2.7069     -2.0840
  10       -2.2927     -1.6677
  11       -2.2873     -1.6506
  12       -2.2496     -1.6283
  13       -2.1855     -1.6081
  14       -2.1374     -1.5288
  15       -1.9433     -1.2443
  16       -1.6644     -1.0501
  17       -1.4549     -0.9079
  18       -1.4201     -0.8552
  19       -1.3925     -0.7913
  20       -1.3620     -0.7207
  21       -1.3049     -0.6387
  22       -1.1615     -0.5627
  23       -1.0317     -0.4805
  24       -0.8530     -0.2125
  25       -0.8267     -0.1501
  26       -0.7848     -0.0526
  27       -0.7005     -0.0187
  28       -0.5389      0.2338
  29        0.0087      0.4870
  30        1.6509      1.8793
  31        3.1680      3.3027
  32        5.4127      5.3587
  33        6.6282      6.5764
 
  0.2222222E+00  0.1111111E+00  0.1262379E-14  0.9876543E-01
   1       -7.0343     -7.0431
   2       -5.9814     -5.9600
   3       -4.6090     -4.4915
   4       -3.7928     -3.4595
   5       -3.7027     -3.3814
   6       -3.5355     -3.0500
   7       -3.1997     -2.7361
   8       -2.9125     -2.3535
   9       -2.8301     -2.2280
  10       -2.5095     -1.9833
  11       -2.3436     -1.7650
  12       -2.1892     -1.5564
  13       -2.1606     -1.5213
  14       -2.1347     -1.4969
  15       -2.0018     -1.3691
  16       -1.9238     -1.3044
  17       -1.8034     -1.1592
  18       -1.6542     -1.0508
  19       -1.4619     -0.8516
  20       -1.4080     -0.8239
  21       -1.3004     -0.6822
  22       -1.0880     -0.5080
  23       -1.0752     -0.4548
  24       -1.0016     -0.3116
  25       -0.8951     -0.2767
  26       -0.7449      0.0002
  27       -0.5705      0.1893
  28       -0.4076      0.2021
  29        0.8032      1.1953
  30        2.7193      2.9280
  31        4.4525      4.5912
  32        6.2804      6.2308
  33        7.6242      7.5857
 
  0.3333333E+00  0.1111111E+00  0.1262379E-14  0.9876543E-01
   1       -5.7793     -5.7465
   2       -5.0402     -4.9129
   3       -4.2884     -3.9759
   4       -3.7215     -3.2897
   5       -3.3993     -2.9421
   6       -3.2916     -2.9149
   7       -2.9041     -2.4078
   8       -2.8066     -2.3404
   9       -2.6139     -2.0890
  10       -2.5458     -2.0254
  11       -2.3611     -1.8158
  12       -2.2753     -1.7071
  13       -2.2164     -1.6510
  14       -2.0345     -1.4327
  15       -1.9874     -1.4013
  16       -1.9036     -1.3095
  17       -1.8331     -1.2451
  18       -1.7855     -1.1231
  19       -1.6369     -1.0428
  20       -1.2921     -0.6882
  21       -1.1344     -0.4705
  22       -1.0953     -0.4558
  23       -0.8696     -0.2292
  24       -0.7763     -0.1698
  25       -0.7236     -0.0743
  26       -0.6595      0.0729
  27       -0.6107      0.1202
  28        0.0989      0.6009
  29        1.8141      2.0858
  30        3.9193      4.0760
  31        5.5910      5.8068
  32        5.8338      5.9590
  33        7.0806      7.2932
 
  0.4444444E+00  0.1111111E+00  0.1262379E-14  0.9876543E-01
   1       -4.6441     -4.4367
   2       -4.5171     -4.1940
   3       -4.2361     -3.8703
   4       -3.8561     -3.4242
   5       -3.5129     -3.1822
   6       -2.9793     -2.5209
   7       -2.9250     -2.3739
   8       -2.6359     -2.1856
   9       -2.5967     -2.0833
  10       -2.5110     -2.0313
  11       -2.4459     -1.8547
  12       -2.3280     -1.7827
  13       -2.2205     -1.6893
  14       -2.0899     -1.5017
  15       -1.9737     -1.4033
  16       -1.9296     -1.3163
  17       -1.7733     -1.1729
  18       -1.5223     -0.9615
  19       -1.4614     -0.8394
  20       -1.0945     -0.5265
  21       -1.0433     -0.3127
  22       -0.9205     -0.2569
  23       -0.7331     -0.0511
  24       -0.7014     -0.0452
  25       -0.6167      0.1077
  26        0.2714      0.7954
  27        0.3789      0.8358
  28        1.0284      1.3039
  29        2.0990      2.3212
  30        2.2381      2.5742
  31        4.7310      4.9616
  32        4.9535      5.1545
  33        6.9650      7.1801
 
  0.2222222E+00  0.2222222E+00  0.1262379E-14  0.4938272E-01
   1       -6.2331     -6.2273
   2       -5.2564     -5.2088
   3       -4.0718     -3.9022
   4       -3.5596     -3.1986
   5       -3.2962     -2.9832
   6       -3.2278     -2.7154
   7       -3.1389     -2.5799
   8       -3.1021     -2.5281
   9       -2.9855     -2.4025
  10       -2.9134     -2.3976
  11       -2.4947     -1.9655
  12       -2.3584     -1.7684
  13       -2.1867     -1.6022
  14       -1.9757     -1.2973
  15       -1.9427     -1.2633
  16       -1.8239     -1.1626
  17       -1.6732     -1.1069
  18       -1.6296     -1.0055
  19       -1.4681     -0.9505
  20       -1.4369     -0.8414
  21       -1.3400     -0.6552
  22       -1.2667     -0.6421
  23       -1.2314     -0.6298
  24       -0.9537     -0.3762
  25       -0.8680     -0.1049
  26       -0.6379     -0.0274
  27       -0.5575      0.2112
  28        0.1806      0.7207
  29        1.6845      2.0368
  30        3.7054      3.8967
  31        5.5224      5.6433
  32        7.1524      7.1051
  33        8.5999      8.5698
 
  0.3333333E+00  0.2222222E+00  0.1262379E-14  0.9876543E-01
   1       -5.1715     -5.1018
   2       -4.4511     -4.2896
   3       -3.8442     -3.4832
   4       -3.5230     -3.1468
   5       -3.4902     -3.0005
   6       -3.3024     -2.7431
   7       -3.0756     -2.6117
   8       -3.0329     -2.5229
   9       -2.8435     -2.3124
  10       -2.7839     -2.2868
  11       -2.6182     -2.1092
  12       -2.5009     -1.9396
  13       -2.2702     -1.7163
  14       -1.8107     -1.1682
  15       -1.7783     -1.1358
  16       -1.7228     -1.1040
  17       -1.6261     -1.0416
  18       -1.6074     -0.9667
  19       -1.4509     -0.8696
  20       -1.1932     -0.5839
  21       -1.1645     -0.5294
  22       -1.0099     -0.4210
  23       -0.9221     -0.3005
  24       -0.8144     -0.2082
  25       -0.7034      0.0030
  26       -0.5953      0.1542
  27       -0.1243      0.4292
  28        1.0681      1.4939
  29        2.8865      3.1482
  30        4.9924      5.1437
  31        6.1414      6.3412
  32        6.8206      6.9466
  33        7.6024      7.7759
 
  0.4444444E+00  0.2222222E+00  0.1262379E-14  0.9876543E-01
   1       -4.3142     -4.0843
   2       -4.0596     -3.6931
   3       -3.9274     -3.5150
   4       -3.7584     -3.3255
   5       -3.6546     -3.2214
   6       -3.3304     -2.8167
   7       -3.1675     -2.7119
   8       -3.0850     -2.5713
   9       -2.8265     -2.3232
  10       -2.7144     -2.1954
  11       -2.4472     -1.9483
  12       -2.3883     -1.8542
  13       -2.2771     -1.7499
  14       -1.7745     -1.1532
  15       -1.7506     -1.1450
  16       -1.7077     -1.1173
  17       -1.6723     -1.0360
  18       -1.4988     -0.8945
  19       -1.3132     -0.6363
  20       -1.0754     -0.4069
  21       -0.9175     -0.3034
  22       -0.8084     -0.2182
  23       -0.6519      0.0076
  24       -0.6104      0.1077
  25       -0.5765      0.1270
  26        0.5913      1.0482
  27        1.2980      1.6782
  28        2.4937      2.7563
  29        2.9008      3.1950
  30        3.4010      3.6244
  31        5.3323      5.5467
  32        5.6980      5.8969
  33        7.5470      7.7096
 
  0.3333333E+00  0.3333333E+00  0.1262379E-14  0.4938272E-01
   1       -4.6021     -4.4211
   2       -3.9337     -3.6801
   3       -3.8180     -3.4404
   4       -3.6563     -3.1425
   5       -3.6323     -3.0981
   6       -3.5478     -3.0581
   7       -3.3172     -2.8755
   8       -3.2832     -2.7046
   9       -2.9471     -2.4514
  10       -2.7605     -2.1997
  11       -2.7429     -2.1939
  12       -2.2993     -1.7666
  13       -2.2243     -1.6772
  14       -1.4210     -0.7914
  15       -1.4034     -0.7648
  16       -1.3746     -0.7320
  17       -1.3398     -0.6927
  18       -1.2543     -0.6813
  19       -1.0775     -0.5283
  20       -1.0544     -0.3852
  21       -0.9558     -0.3652
  22       -0.9552     -0.2811
  23       -0.8009     -0.2589
  24       -0.7598     -0.0129
  25       -0.5462      0.0454
  26       -0.4068      0.2213
  27        0.7991      1.2178
  28        2.3560      2.6783
  29        4.3483      4.5605
  30        5.8705      6.0347
  31        6.5718      6.6968
  32        7.2847      7.4541
  33        8.5619      8.6390
 
  0.4444444E+00  0.3333333E+00  0.1262379E-14  0.9876543E-01
   1       -4.3110     -4.0072
   2       -4.0801     -3.7271
   3       -3.8787     -3.4394
   4       -3.8209     -3.2952
   5       -3.7051     -3.2241
   6       -3.5997     -3.0848
   7       -3.5030     -3.0447
   8       -3.3332     -2.7836
   9       -3.1459     -2.6538
  10       -2.9209     -2.3646
  11       -2.5473     -1.9807
  12       -2.0433     -1.4975
  13       -1.9319     -1.3456
  14       -1.3263     -0.7458
  15       -1.2679     -0.7106
  16       -1.1928     -0.5484
  17       -1.1596     -0.5032
  18       -1.0890     -0.4317
  19       -1.0338     -0.4150
  20       -0.9262     -0.2845
  21       -0.7738     -0.1650
  22       -0.6456     -0.0099
  23       -0.6267      0.0240
  24       -0.6095      0.1251
  25       -0.4744      0.2735
  26        1.2127      1.5098
  27        2.4838      2.7626
  28        3.6146      3.8193
  29        4.1648      4.3840
  30        4.8515      5.0460
  31        6.4053      6.5708
  32        6.8551      7.0305
  33        8.6708      8.7778
 
  0.4444444E+00  0.4444444E+00  0.1262379E-14  0.4938272E-01
   1       -4.4151     -4.0570
   2       -4.2960     -3.9562
   3       -3.9840     -3.5722
   4       -3.9572     -3.4106
   5       -3.9347     -3.4025
   6       -3.6653     -3.2059
   7       -3.5221     -2.9811
   8       -3.4924     -2.9227
   9       -3.3929     -2.9028
  10       -2.7251     -2.1529
  11       -2.6882     -2.1110
  12       -1.7665     -1.1441
  13       -1.7255     -1.1000
  14       -1.1544     -0.5816
  15       -1.0489     -0.5168
  16       -0.8935     -0.2377
  17       -0.8403     -0.1682
  18       -0.7541     -0.1199
  19       -0.7104     -0.0960
  20       -0.6344     -0.0127
  21       -0.6196      0.0440
  22       -0.5521      0.1440
  23       -0.5141      0.1894
  24       -0.3630      0.3992
  25       -0.3186      0.4580
  26        2.3770      2.4916
  27        3.6107      3.7047
  28        4.0034      4.1748
  29        5.3181      5.4470
  30        6.0438      6.2097
  31        7.6278      7.7613
  32        8.2344      8.3657
  33        9.3234      9.5411
