Automatically generated mesh
      15
Reciprocal lattice
    0.00000000000000    0.00000000000000    0.00000000000000             1
    0.11111111111111    0.00000000000000    0.00000000000000             4
    0.22222222222222    0.00000000000000    0.00000000000000             4
    0.33333333333333    0.00000000000000    0.00000000000000             4
    0.44444444444445    0.00000000000000    0.00000000000000             4
    0.11111111111111    0.11111111111111    0.00000000000000             4
    0.22222222222222    0.11111111111111    0.00000000000000             8
    0.33333333333333    0.11111111111111    0.00000000000000             8
    0.44444444444445    0.11111111111111    0.00000000000000             8
    0.22222222222222    0.22222222222222    0.00000000000000             4
    0.33333333333333    0.22222222222222    0.00000000000000             8
    0.44444444444445    0.22222222222222    0.00000000000000             8
    0.33333333333333    0.33333333333333    0.00000000000000             4
    0.44444444444445    0.33333333333333    0.00000000000000             8
    0.44444444444445    0.44444444444445    0.00000000000000             4
