       N       E                     dE             d eps       ncg     rms          rms(c)
DAV:   1     0.260829656825E+03    0.26083E+03   -0.16113E+04  1980   0.112E+03
DAV:   2    -0.147829891662E+02   -0.27561E+03   -0.26236E+03  1990   0.284E+02
DAV:   3    -0.298835539158E+02   -0.15101E+02   -0.14455E+02  2158   0.923E+01
DAV:   4    -0.300135433308E+02   -0.12999E+00   -0.12979E+00  2059   0.923E+00
DAV:   5    -0.300144015769E+02   -0.85825E-03   -0.85812E-03  2263   0.577E-01    0.171E+01
RMM:   6    -0.315865115292E+02   -0.15721E+01   -0.49290E+01  1996   0.647E+01    0.272E+01
RMM:   7    -0.322046483668E+02   -0.61814E+00   -0.16231E+01  1994   0.329E+01    0.257E+01
RMM:   8    -0.295847311070E+02    0.26199E+01   -0.47156E+00  1994   0.174E+01    0.273E+01
RMM:   9    -0.257520603862E+02    0.38327E+01   -0.19606E+00  1997   0.115E+01    0.960E+00
RMM:  10    -0.255408905090E+02    0.21117E+00   -0.34953E-01  1999   0.398E+00    0.634E+00
RMM:  11    -0.258238443268E+02   -0.28295E+00   -0.13425E-01  2000   0.273E+00    0.126E+01
RMM:  12    -0.255004742862E+02    0.32337E+00   -0.66113E-02  1998   0.209E+00    0.429E+00
RMM:  13    -0.255012757181E+02   -0.80143E-03   -0.58312E-02  1999   0.187E+00    0.356E+00
RMM:  14    -0.255144552099E+02   -0.13179E-01   -0.68443E-02  2000   0.195E+00    0.264E+00
RMM:  15    -0.255417862209E+02   -0.27331E-01   -0.88348E-03  1996   0.680E-01    0.270E+00
RMM:  16    -0.255427859031E+02   -0.99968E-03   -0.41856E-02  1993   0.157E+00    0.105E+00
RMM:  17    -0.255531058330E+02   -0.10320E-01   -0.10297E-02  1997   0.653E-01    0.919E-01
RMM:  18    -0.255538570078E+02   -0.75117E-03   -0.12156E-02  1983   0.840E-01    0.270E-01
RMM:  19    -0.255533157378E+02    0.54127E-03   -0.17986E-03  1983   0.273E-01    0.391E-01
RMM:  20    -0.255528762496E+02    0.43949E-03   -0.41872E-04  1993   0.127E-01    0.201E-01
RMM:  21    -0.255533438160E+02   -0.46757E-03   -0.31641E-04  1993   0.115E-01    0.108E-01
RMM:  22    -0.255549301801E+02   -0.15864E-02   -0.10792E-04  1983   0.611E-02    0.211E-02
RMM:  23    -0.255558942433E+02   -0.96406E-03   -0.37426E-05  1666   0.249E-02    0.183E-02
RMM:  24    -0.255565714353E+02   -0.67719E-03   -0.26237E-05  1579   0.205E-02    0.845E-03
RMM:  25    -0.255570125204E+02   -0.44109E-03   -0.34456E-05  1571   0.205E-02    0.104E-02
RMM:  26    -0.255571494861E+02   -0.13697E-03   -0.10735E-05  1419   0.124E-02    0.680E-03
RMM:  27    -0.255571985671E+02   -0.49081E-04   -0.56132E-06  1346   0.884E-03    0.331E-03
RMM:  28    -0.255572114137E+02   -0.12847E-04   -0.13842E-06  1217   0.547E-03    0.200E-03
RMM:  29    -0.255572165262E+02   -0.51125E-05   -0.54723E-07  1093   0.328E-03    0.149E-03
RMM:  30    -0.255572184026E+02   -0.18764E-05   -0.16214E-07   781   0.165E-03    0.385E-04
RMM:  31    -0.255572189460E+02   -0.54343E-06   -0.61257E-08   611   0.794E-04
   1 F= -.25557219E+02 E0= -.25557419E+02  d E =-.255572E+02  mag=     3.0935
       N       E                     dE             d eps       ncg     rms          rms(c)
DAV:   1    -0.255669666624E+02   -0.25567E+02   -0.91042E+00  1993   0.168E+01    0.651E-01
RMM:   2    -0.255786610561E+02   -0.11694E-01   -0.42557E-02  1994   0.188E+00    0.164E+00
RMM:   3    -0.255903232643E+02   -0.11662E-01   -0.10319E-02  1996   0.811E-01    0.286E+00
RMM:   4    -0.255797219922E+02    0.10601E-01   -0.92772E-03  1998   0.774E-01    0.151E+00
RMM:   5    -0.255728888903E+02    0.68331E-02   -0.66099E-03  2000   0.673E-01    0.651E-01
RMM:   6    -0.255724119650E+02    0.47693E-03   -0.14355E-03  1997   0.294E-01    0.533E-01
RMM:   7    -0.255724634309E+02   -0.51466E-04   -0.11408E-03  1999   0.263E-01    0.474E-01
RMM:   8    -0.255715209220E+02    0.94251E-03   -0.96953E-04  1999   0.261E-01    0.594E-02
RMM:   9    -0.255715722749E+02   -0.51353E-04   -0.88661E-05  1988   0.731E-02    0.242E-02
RMM:  10    -0.255715973829E+02   -0.25108E-04   -0.10749E-05  1930   0.269E-02    0.108E-02
RMM:  11    -0.255716148606E+02   -0.17478E-04   -0.13176E-06  1163   0.953E-03    0.466E-03
RMM:  12    -0.255716299551E+02   -0.15095E-04   -0.59143E-07  1155   0.491E-03    0.219E-03
RMM:  13    -0.255716366858E+02   -0.67307E-05   -0.24226E-07  1095   0.302E-03    0.173E-03
RMM:  14    -0.255716431461E+02   -0.64603E-05   -0.39553E-07  1131   0.323E-03    0.150E-03
RMM:  15    -0.255716450066E+02   -0.18605E-05   -0.13072E-07   922   0.183E-03    0.794E-04
RMM:  16    -0.255716457507E+02   -0.74407E-06   -0.11680E-07   765   0.122E-03
   2 F= -.25571646E+02 E0= -.25571862E+02  d E =-.144268E-01  mag=     3.0979
       N       E                     dE             d eps       ncg     rms          rms(c)
DAV:   1    -0.255726051569E+02   -0.25573E+02   -0.76902E-01  1990   0.458E+00    0.254E-01
RMM:   2    -0.255844365851E+02   -0.11831E-01   -0.93202E-03  1996   0.799E-01    0.201E+00
RMM:   3    -0.255740898115E+02    0.10347E-01   -0.40954E-03  1994   0.532E-01    0.726E-01
RMM:   4    -0.255734696789E+02    0.62013E-03   -0.10354E-03  1996   0.254E-01    0.498E-01
RMM:   5    -0.255736718149E+02   -0.20214E-03   -0.87406E-04  1995   0.233E-01    0.511E-01
RMM:   6    -0.255729132115E+02    0.75860E-03   -0.54024E-04  1992   0.196E-01    0.111E-01
RMM:   7    -0.255728980019E+02    0.15210E-04   -0.11652E-04  1990   0.853E-02    0.865E-02
RMM:   8    -0.255728483868E+02    0.49615E-04   -0.43752E-05  1983   0.559E-02    0.126E-02
RMM:   9    -0.255728579078E+02   -0.95210E-05   -0.71187E-06  1706   0.194E-02    0.677E-03
RMM:  10    -0.255728642021E+02   -0.62943E-05   -0.89602E-07  1129   0.789E-03    0.307E-03
RMM:  11    -0.255728699350E+02   -0.57329E-05   -0.26489E-07  1116   0.405E-03    0.167E-03
RMM:  12    -0.255728776848E+02   -0.77498E-05   -0.41840E-07  1144   0.330E-03    0.107E-03
RMM:  13    -0.255728811825E+02   -0.34977E-05   -0.19650E-07   888   0.193E-03    0.826E-04
RMM:  14    -0.255728829762E+02   -0.17937E-05   -0.16292E-07   721   0.139E-03    0.543E-04
RMM:  15    -0.255728835032E+02   -0.52702E-06   -0.92553E-08   670   0.107E-03
   3 F= -.25572884E+02 E0= -.25573076E+02  d E =-.123775E-02  mag=     3.0972
       N       E                     dE             d eps       ncg     rms          rms(c)
DAV:   1    -0.255733798820E+02   -0.25573E+02   -0.56738E+00  1988   0.131E+01    0.805E-01
RMM:   2    -0.257614061831E+02   -0.18803E+00   -0.11878E-01  2000   0.291E+00    0.734E+00
RMM:   3    -0.255911824482E+02    0.17022E+00   -0.50668E-02  1991   0.188E+00    0.262E+00
RMM:   4    -0.255783830612E+02    0.12799E-01   -0.11099E-02  1994   0.829E-01    0.134E+00
RMM:   5    -0.255787547702E+02   -0.37171E-03   -0.73638E-03  1999   0.675E-01    0.118E+00
RMM:   6    -0.255749990903E+02    0.37557E-02   -0.31815E-03  1999   0.475E-01    0.400E-01
RMM:   7    -0.255745931225E+02    0.40597E-03   -0.90764E-04  2000   0.245E-01    0.256E-01
RMM:   8    -0.255741412993E+02    0.45182E-03   -0.34776E-04  2002   0.147E-01    0.474E-02
RMM:   9    -0.255741463409E+02   -0.50417E-05   -0.84886E-05  1988   0.686E-02    0.476E-02
RMM:  10    -0.255741916889E+02   -0.45348E-04   -0.10238E-05  1898   0.228E-02    0.251E-02
RMM:  11    -0.255742467598E+02   -0.55071E-04   -0.39672E-06  1340   0.136E-02    0.717E-03
RMM:  12    -0.255743113665E+02   -0.64607E-04   -0.34747E-06  1289   0.908E-03    0.687E-03
RMM:  13    -0.255743732614E+02   -0.61895E-04   -0.48003E-06  1318   0.934E-03    0.328E-03
RMM:  14    -0.255743990857E+02   -0.25824E-04   -0.29337E-06  1278   0.714E-03    0.184E-03
RMM:  15    -0.255744071408E+02   -0.80551E-05   -0.11513E-06  1183   0.443E-03    0.169E-03
RMM:  16    -0.255744082484E+02   -0.11076E-05   -0.37333E-07   922   0.241E-03    0.342E-04
RMM:  17    -0.255744083391E+02   -0.90768E-07   -0.23107E-08   421   0.368E-04
   4 F= -.25574408E+02 E0= -.25574488E+02  d E =-.152484E-02  mag=     3.0896
       N       E                     dE             d eps       ncg     rms          rms(c)
DAV:   1    -0.255744472737E+02   -0.25574E+02   -0.23435E-01  1988   0.252E+00    0.144E-01
RMM:   2    -0.255786521111E+02   -0.42048E-02   -0.30395E-03  1995   0.458E-01    0.122E+00
RMM:   3    -0.255749275613E+02    0.37245E-02   -0.14506E-03  1993   0.316E-01    0.402E-01
RMM:   4    -0.255747079672E+02    0.21959E-03   -0.31556E-04  1997   0.141E-01    0.279E-01
RMM:   5    -0.255747657153E+02   -0.57748E-04   -0.27388E-04  1995   0.131E-01    0.281E-01
RMM:   6    -0.255745298591E+02    0.23586E-03   -0.16502E-04  1992   0.108E-01    0.622E-02
RMM:   7    -0.255745237981E+02    0.60611E-05   -0.35298E-05  1982   0.470E-02    0.454E-02
RMM:   8    -0.255745076978E+02    0.16100E-04   -0.13232E-05  1950   0.304E-02    0.714E-03
RMM:   9    -0.255745112128E+02   -0.35150E-05   -0.20339E-06  1215   0.104E-02    0.322E-03
RMM:  10    -0.255745129238E+02   -0.17111E-05   -0.51112E-07  1102   0.667E-03    0.134E-03
RMM:  11    -0.255745145497E+02   -0.16259E-05   -0.11231E-07  1087   0.274E-03    0.115E-03
RMM:  12    -0.255745170873E+02   -0.25376E-05   -0.15794E-07   886   0.175E-03    0.612E-04
RMM:  13    -0.255745181065E+02   -0.10192E-05   -0.68868E-08   624   0.862E-04    0.585E-04
RMM:  14    -0.255745186547E+02   -0.54816E-06   -0.62785E-08   599   0.783E-04
   5 F= -.25574519E+02 E0= -.25574581E+02  d E =-.110316E-03  mag=     3.0890
       N       E                     dE             d eps       ncg     rms          rms(c)
DAV:   1    -0.255745209801E+02   -0.25575E+02   -0.87978E-03  1996   0.499E-01    0.301E-02
RMM:   2    -0.255747613275E+02   -0.24035E-03   -0.14406E-04  1985   0.101E-01    0.302E-01
RMM:   3    -0.255745423614E+02    0.21897E-03   -0.72862E-05  1973   0.709E-02    0.858E-02
RMM:   4    -0.255745298487E+02    0.12513E-04   -0.13456E-05  1953   0.290E-02    0.513E-02
RMM:   5    -0.255745329443E+02   -0.30955E-05   -0.11381E-05  1911   0.267E-02    0.553E-02
RMM:   6    -0.255745235106E+02    0.94336E-05   -0.61291E-06  1722   0.211E-02    0.114E-02
RMM:   7    -0.255745233285E+02    0.18214E-06   -0.11892E-06  1088   0.895E-03
   6 F= -.25574523E+02 E0= -.25574590E+02  d E =-.467376E-05  mag=     3.0891
