 vasp.4.6.38 12Jan11 complex 
 executed on                  Sun date 2020.01.31  16:02:02
 serial version


--------------------------------------------------------------------------------------------------------


 INCAR:
 POTCAR:    PAW Ni                                

 ----------------------------------------------------------------------------- 
|                                                                             |
|           W    W    AA    RRRRR   N    N  II  N    N   GGGG   !!!           |
|           W    W   A  A   R    R  NN   N  II  NN   N  G    G  !!!           |
|           W    W  A    A  R    R  N N  N  II  N N  N  G       !!!           |
|           W WW W  AAAAAA  RRRRR   N  N N  II  N  N N  G  GGG   !            |
|           WW  WW  A    A  R   R   N   NN  II  N   NN  G    G                |
|           W    W  A    A  R    R  N    N  II  N    N   GGGG   !!!           |
|                                                                             |
|     This version of vasp.4.6 restores the correct one-centre multipoles     |
|     of the AE-charge density up to L=6. Previous versions truncated the     |
|     augmentation at L=4. This version is compatible with vasp.5.2 and       |
|     technically more accurate.                                              |
|     If you want to recover the old vasp.4.6 behaviour please change us.F    |
|     around line 2801 and 1508 (LYMAX=MIN(4,LYMAX*2) instead LYMAX=LYMAX*2)  |
|     Changes between this and previous vasp version are expected to be       |
|     small, except for f elements.                                           |
|                                                                             |
 ----------------------------------------------------------------------------- 

 POTCAR:    PAW Ni                                
   VRHFIN =Ni:                                                                  
   LEXCH  = 91                                                                  
   EATOM  =  1079.4692 eV,   79.3388 Ry                                         
                                                                                
   TITEL  = PAW Ni                                                              
   LULTRA =        F    use ultrasoft PP ?                                      
   IUNSCR =        1    unscreen: 0-lin 1-nonlin 2-no                           
   RPACOR =    2.000    partial core radius                                     
   POMASS =   58.690; ZVAL   =   10.000    mass and valenz                      
   RCORE  =    2.300    outmost cutoff radius                                   
   RWIGS  =    2.430; RWIGS  =    1.286    wigner-seitz radius (au A)           
   ENMAX  =  269.561; ENMIN  =  202.171 eV                                      
   RCLOC  =    1.681    cutoff for local pot                                    
   LCOR   =        T    correct aug charges                                     
   LPAW   =        T    paw PP                                                  
   EAUG   =  544.565                                                            
   DEXC   =    -.002                                                            
   RMAX   =    2.808    core radius for proj-oper                               
   RAUG   =    1.300    factor for augmentation sphere                          
   RDEP   =    2.390    core radius for depl-charge                             
   QCUT   =   -4.451; QGAM   =    8.902    optimization parameters              
                                                                                
   Description                                                                  
     l     E      TYP  RCUT    TYP  RCUT                                        
     2   .000     23  2.300                                                     
     2   .000     23  2.300                                                     
     0   .000     23  2.300                                                     
     0   .000     23  2.300                                                     
     1  -.200     23  2.300                                                     
     1   .000     23  2.300                                                     
     3   .000      7   .000                                                     
  local pseudopotential read in
  partial core-charges read in
  atomic valenz-charges read in
  non local Contribution for L= 2  read in
    real space projection operators read in
  non local Contribution for L= 2  read in
    real space projection operators read in
  non local Contribution for L= 0  read in
    real space projection operators read in
  non local Contribution for L= 0  read in
    real space projection operators read in
  non local Contribution for L= 1  read in
    real space projection operators read in
  non local Contribution for L= 1  read in
    real space projection operators read in
    PAW grid and wavefunctions read in
 
   number of l-projection  operators is LMAX  = 6
   number of lm-projection operators is LMMAX = 18
 
  PAW Ni                                :
 energy of atom  1       EATOM=-1079.4692
 kinetic energy error for atom=    0.0378 (will be added to EATOM!!)
 
 EXHCAR: internal setup
 exchange correlation table for  LEXCH =        7
   RHO(1)=    0.500       N(1)  =     2000
   RHO(2)=  100.500       N(2)  =     4000
 
 POSCAR: fcc (100) surface                       
  positions in cartesian coordinates
  No initial velocities read in
 


--------------------------------------------------------------------------------------------------------


 ion  position               nearest neighbor table
   1  0.000  0.000  0.000-   2 2.50   2 2.50   2 2.50   2 2.50
   2  0.500  0.500  0.100-   1 2.50   3 2.50   1 2.50   3 2.50   1 2.50   3 2.50   1 2.50   3 2.50

   3  0.000  0.000  0.200-   4 2.50   4 2.50   4 2.50   4 2.50   2 2.50   2 2.50   2 2.50   2 2.50

   4  0.500  0.500  0.300-   3 2.50   3 2.50   3 2.50   3 2.50   5 2.50   5 2.50   5 2.50   5 2.50

   5  0.000  0.000  0.400-   4 2.50   4 2.50   4 2.50   4 2.50
 
  LATTYP: Found a simple tetragonal cell.
 ALAT       =     2.4960869376
 C/A-ratio  =     7.0710678119
  
  Lattice vectors:
  
 A1 = (   1.7650000000,   1.7650000000,   0.0000000000)
 A2 = (  -1.7650000000,   1.7650000000,   0.0000000000)
 A3 = (   0.0000000000,   0.0000000000,  17.6500000000)
 Subroutine PRICEL returns:
 Original cell was already a primitive cell.
 

Analysis of symmetry for initial positions (statically):

 Routine SETGRP: Setting up the symmetry group for a 
 simple tetragonal supercell.


 Subroutine GETGRP returns: Found 16 space group operations
 (whereof  8 operations were pure point group operations)
 out of a pool of 16 trial point group operations.


The static configuration has the point symmetry C_4v.
 The point group associated with its full space group is D_4h.

Analysis of symmetry for dynamics (positions and initial velocities):

 Subroutine DYNSYM returns: Found 16 space group operations
 (whereof  8 operations were pure point group operations)
 out of a pool of 16 trial space group operations
 (whereof  8 operations were pure point group operations)
 and found also     1 'primitive' translations


The dynamic configuration has the point symmetry C_4v.
 The point group associated with its full space group is D_4h.

Analysis of constrained symmetry for selective dynamics:

 Subroutine DYNSYM returns: Found  8 space group operations
 (whereof  8 operations were pure point group operations)
 out of a pool of 16 trial space group operations
 (whereof  8 operations were pure point group operations)
 and found also     1 'primitive' translations


The constrained configuration has the point symmetry C_4v.

Analysis of magnetic symmetry:

 Subroutine MAGSYM returns: Found  8 space group operations
 (whereof  8 operations were pure point group operations)
 out of a pool of  8 trial space group operations
 (whereof  8 operations were pure point group operations)
 and found also     1 'primitive' translations


The magnetic configuration has the point symmetry C_4v.
 
 
 KPOINTS: K-Points                                

Automatic generation of k-mesh.
 
 Subroutine IBZKPT returns following result:
 ===========================================
 
 Found     15 irreducible k-points:
 
 Following reciprocal coordinates:
            Coordinates               Weight
  0.000000  0.000000  0.000000      1.000000
  0.111111  0.000000  0.000000      4.000000
  0.222222  0.000000  0.000000      4.000000
  0.333333  0.000000  0.000000      4.000000
  0.444444  0.000000  0.000000      4.000000
  0.111111  0.111111  0.000000      4.000000
  0.222222  0.111111  0.000000      8.000000
  0.333333  0.111111  0.000000      8.000000
  0.444444  0.111111  0.000000      8.000000
  0.222222  0.222222  0.000000      4.000000
  0.333333  0.222222  0.000000      8.000000
  0.444444  0.222222  0.000000      8.000000
  0.333333  0.333333  0.000000      4.000000
  0.444444  0.333333  0.000000      8.000000
  0.444444  0.444444  0.000000      4.000000
 
 Following cartesian coordinates:
            Coordinates               Weight
  0.000000  0.000000  0.000000      1.000000
  0.111111  0.111111  0.000000      4.000000
  0.222222  0.222222  0.000000      4.000000
  0.333333  0.333333  0.000000      4.000000
  0.444444  0.444444  0.000000      4.000000
  0.000000  0.222222  0.000000      4.000000
  0.111111  0.333333  0.000000      8.000000
  0.222222  0.444444  0.000000      8.000000
  0.333333  0.555556  0.000000      8.000000
  0.000000  0.444444  0.000000      4.000000
  0.111111  0.555556  0.000000      8.000000
  0.222222  0.666667  0.000000      8.000000
  0.000000  0.666667  0.000000      4.000000
  0.111111  0.777778  0.000000      8.000000
  0.000000  0.888889  0.000000      4.000000
 


--------------------------------------------------------------------------------------------------------




 Dimension of arrays:
   k-Points           NKPTS =     15   number of bands    NBANDS=     33
   number of dos      NEDOS =    301   number of ions     NIONS =      5
   non local maximal  LDIM  =      6   non local SUM 2l+1 LMDIM =     18
   total plane-waves  NPLWV =   7200
   max r-space proj   IRMAX =      1   max aug-charges    IRDMAX=   1871
   dimension x,y,z NGX =    10 NGY =   10 NGZ =   72
   dimension x,y,z NGXF=    18 NGYF=   18 NGZF=  140
   support grid    NGXF=    18 NGYF=   18 NGZF=  140
   ions per type =               5
 NGX,Y,Z   is equivalent  to a cutoff of   6.66,  6.66,  6.78 a.u.
 NGXF,Y,Z  is equivalent  to a cutoff of  11.99, 11.99, 13.19 a.u.


 I would recommend the setting:
   dimension x,y,z NGX =    10 NGY =   10 NGZ =   71
 SYSTEM =  clean Ni(100) surface                   
 POSCAR =  fcc (100) surface                       

 Startparameter for this run:
   NWRITE =      2    write-flag & timer
   PREC   = medium    medium, high low
   ISTART =      0    job   : 0-new  1-cont  2-samecut
   ICHARG =      2    charge: 1-file 2-atom 10-const
   ISPIN  =      2    spin polarized calculation?
   LNONCOLLINEAR =      F non collinear calculations
   LSORBIT =      F    spin-orbit coupling
   INIWAV =      1    electr: 0-lowe 1-rand  2-diag
   LASPH  =      F    aspherical Exc in radial PAW
   METAGGA=      F    non-selfconsistent MetaGGA calc.

 Electronic Relaxation 1
   ENCUT  =  270.0 eV  19.84 Ry    4.45 a.u.   3.34  3.34 23.65*2*pi/ulx,y,z
   ENINI  =  270.0     initial cutoff
   ENAUG  =  544.6 eV  augmentation charge cutoff
   NELM   =     60;   NELMIN=  2; NELMDL= -5     # of ELM steps 
   EDIFF  = 0.1E-05   stopping-criterion for ELM
   LREAL  =      F    real-space projection
   LCOMPAT=      F    compatible to vasp.4.4
   LREAL_COMPAT= F    compatible to vasp.4.5.1-3
   GGA_COMPAT  = T    GGA compatible to vasp.4.4-vasp.4.6
   LMAXPAW     = -100 max onsite density
   LMAXMIX     =    2 max onsite mixed and CHGCAR
   VOSKOWN=      0    Vosko Wilk Nusair interpolation
   ROPT   =    0.00000
 Ionic relaxation
   EDIFFG = 0.1E-04   stopping-criterion for IOM
   NSW    =    100    number of steps for IOM
   NBLOCK =      1;   KBLOCK =    100    inner block; outer block 
   IBRION =      1    ionic relax: 0-MD 1-quasi-New 2-CG
   NFREE  =      0    steps in history (QN), initial steepest desc. (CG)
   ISIF   =      2    stress and relaxation
   IWAVPR =     11    prediction:  0-non 1-charg 2-wave 3-comb
   ISYM   =      2    0-nonsym 1-usesym 2-fastsym
   LCORR  =      T    Harris-Foulkes like correction to forces

   POTIM  =   0.80    time-step for ionic-motion
   TEIN   =    0.0    initial temperature
   TEBEG  =    0.0;   TEEND  =   0.0 temperature during run
   SMASS  =  -3.00    Nose mass-parameter (am)
   estimated Nose-frequenzy (Omega)   =  0.10E-29 period in steps =****** mass=  -0.142E-27a.u.
   NPACO  =    256;   APACO  = 16.0  distance and # of slots for P.C.
   PSTRESS=    0.0 pullay stress

  Mass of Ions in am
   POMASS =  58.69
  Ionic Valenz
   ZVAL   =  10.00
  Atomic Wigner-Seitz radii
   RWIGS  =  -1.00
   NELECT =      50.0000    total number of electrons
   NUPDOWN=      -1.0000    fix difference up-down

 DOS related values:
   EMIN   =  10.00;   EMAX   =-10.00  energy-range for DOS
   ISMEAR =     2;   SIGMA  =   0.20  broadening in eV -4-tet -1-fermi 0-gaus

 Electronic relaxation 2 (details)
   IALGO  =     68    algorithm
   LDIAG  =      T    sub-space diagonalisation
   IMIX   =      4    mixing-type and parameters
     AMIX     =   0.40;   BMIX     =  1.00
     AMIX_MAG =   1.60;   BMIX_MAG =  1.00
     AMIN     =   0.10
     WC   =   100.;   INIMIX=   1;  MIXPRE=   1

 Intra band minimization:
   WEIMIN = 0.0010     energy-eigenvalue tresh-hold
   EBREAK =  0.76E-08  absolut break condition
   DEPER  =   0.30     relativ break condition  

   TIME   =   0.10     timestep for ELM

  volume/ion in A,a.u.               =      21.99       148.42
  Fermi-wavevector in a.u.,eV,Ry     =   1.258858 21.561476  1.584724

 Second variation
   LSECVAR=     F    do a second variation
 
 Write flags
   LWAVE  =      T    write WAVECAR
   LCHARG =      T    write CHGCAR
   LVTOT  =      F    write LOCPOT, local potential
   LELF   =      F    write electronic localiz. function (ELF)
   LORBIT =      0    0 simple, 1 ext, 2 COOP (PROOUT)


 Dipole corrections
   IDIPOL =      0    1-x, 2-y, 3-z
   LDIPOL =      F    correct potential



--------------------------------------------------------------------------------------------------------


 quasi-Newton-method for relaxation of ions
   using selective dynamics as specified on POSCAR
   WARNING: If single coordinates had been selected the selection of coordinates
            is made according to the corresponding   d i r e c t   coordinates!
            Don't support selection of single cartesian coordinates -- sorry ... !
 charge density will be updated during run
 spin polarized calculation
 RMM-DIIS sequential band-by-band and
  variant of blocked Davidson during initial phase
 performe sub-space diagonalisation
    before iterative eigenvector-optimisation
 modified Broyden-mixing scheme, WC =      100.0
 initial mixing is a Kerker type mixing with AMIX =  0.4000 and BMIX =      1.0000
 Hartree-type preconditioning will be used
 using additional bands  8
 reciprocal scheme for non local part
 use partial core corrections
 calculate Harris-corrections to forces   (improved forces if not selfconsistent)
 use gradient corrections 
 use of overlap-Matrix (Vanderbilt PP)
 Methfessel and Paxton  Order N= 2 SIGMA  =   0.20


--------------------------------------------------------------------------------------------------------


  energy-cutoff  :      270.00
  volume of cell :      109.97
      direct lattice vectors                 reciprocal lattice vectors
     1.765000000  1.765000000  0.000000000     0.283286119  0.283286119  0.000000000
    -1.765000000  1.765000000  0.000000000    -0.283286119  0.283286119  0.000000000
     0.000000000  0.000000000 17.650000000     0.000000000  0.000000000  0.056657224

  length of vectors
     2.496086938  2.496086938 17.650000000     0.400627071  0.400627071  0.056657224


 
 k-points in units of 2pi/SCALE and weight: K-Points                                
   0.00000000  0.00000000  0.00000000       0.012
   0.11111111  0.11111111  0.00000000       0.049
   0.22222222  0.22222222  0.00000000       0.049
   0.33333333  0.33333333  0.00000000       0.049
   0.44444444  0.44444444  0.00000000       0.049
   0.00000000  0.22222222  0.00000000       0.049
   0.11111111  0.33333333  0.00000000       0.099
   0.22222222  0.44444444  0.00000000       0.099
   0.33333333  0.55555556  0.00000000       0.099
   0.00000000  0.44444444  0.00000000       0.049
   0.11111111  0.55555556  0.00000000       0.099
   0.22222222  0.66666667  0.00000000       0.099
   0.00000000  0.66666667  0.00000000       0.049
   0.11111111  0.77777778  0.00000000       0.099
   0.00000000  0.88888889  0.00000000       0.049
 
 k-points in reciprocal lattice and weights: K-Points                                
   0.00000000  0.00000000  0.00000000       0.012
   0.11111111  0.00000000  0.00000000       0.049
   0.22222222  0.00000000  0.00000000       0.049
   0.33333333  0.00000000  0.00000000       0.049
   0.44444444  0.00000000  0.00000000       0.049
   0.11111111  0.11111111  0.00000000       0.049
   0.22222222  0.11111111  0.00000000       0.099
   0.33333333  0.11111111  0.00000000       0.099
   0.44444444  0.11111111  0.00000000       0.099
   0.22222222  0.22222222  0.00000000       0.049
   0.33333333  0.22222222  0.00000000       0.099
   0.44444444  0.22222222  0.00000000       0.099
   0.33333333  0.33333333  0.00000000       0.049
   0.44444444  0.33333333  0.00000000       0.099
   0.44444444  0.44444444  0.00000000       0.049
 
 position of ions in fractional coordinates (direct lattice) 
   0.00000000  0.00000000  0.00000000
   0.50000000  0.50000000  0.10000000
   0.00000000  0.00000000  0.20000000
   0.50000000  0.50000000  0.30000000
   0.00000000  0.00000000  0.40000000
 
 position of ions in cartesian coordinates  (Angst):
   0.00000000  0.00000000  0.00000000
   0.00000000  1.76500000  1.76500000
   0.00000000  0.00000000  3.53000000
   0.00000000  1.76500000  5.29500000
   0.00000000  0.00000000  7.06000000
 


--------------------------------------------------------------------------------------------------------


 k-point  1 :  0.00000.00000.0000  plane waves:   1131
 k-point  2 :  0.11110.00000.0000  plane waves:   1131
 k-point  3 :  0.22220.00000.0000  plane waves:   1109
 k-point  4 :  0.33330.00000.0000  plane waves:   1109
 k-point  5 :  0.44440.00000.0000  plane waves:   1104
 k-point  6 :  0.11110.11110.0000  plane waves:   1121
 k-point  7 :  0.22220.11110.0000  plane waves:   1104
 k-point  8 :  0.33330.11110.0000  plane waves:   1106
 k-point  9 :  0.44440.11110.0000  plane waves:   1120
 k-point 10 :  0.22220.22220.0000  plane waves:   1113
 k-point 11 :  0.33330.22220.0000  plane waves:   1108
 k-point 12 :  0.44440.22220.0000  plane waves:   1109
 k-point 13 :  0.33330.33330.0000  plane waves:   1099
 k-point 14 :  0.44440.33330.0000  plane waves:   1088
 k-point 15 :  0.44440.44440.0000  plane waves:   1088

 maximum number of plane-waves:   1131
 maximal index in each direction: 
   IXMAX=  3   IYMAX=  3   IZMAX= 23
   IXMIN= -3   IYMIN= -3   IZMIN=-23

 WARNING: wrap around error must be expected set NGX to  14
 WARNING: wrap around error must be expected set NGY to  14
 WARNING: wrap around error must be expected set NGZ to  94
 For storing wavefunctions   17.57 MBYTES are necessary
 For predicting wavefunctions    3.54 MBYTES are necessary
Broyden mixing: mesh for mixing (old mesh)
   NGX =  7   NGY =  7   NGZ = 47
  (NGX  = 18   NGY  = 18   NGZ  =140)
 gives a total of   2303 points
 initial charge density was supplied:
 charge density of overlapping atoms calculated
 number of electron   50.0000000 magnetization    5.0000000
 keeping initial charge density in first step


--------------------------------------------------------------------------------------------------------


 Maximum index for augmentation-charges  1627 (set IRDMAX)


--------------------------------------------------------------------------------------------------------


 First call to EWALD:  gamma=   0.370
 Maximum number of real-space cells 5x 5x 1
 Maximum number of reciprocal cells 2x 2x 9

    FEWALD:  VPU time    0.03: CPU time    0.02


----------------------------------------- Iteration    1(   1)  ---------------------------------------


    POTLOK:  VPU time    7.84: CPU time    7.84
    SETDIJ:  VPU time    1.44: CPU time    1.44
    EDDAV :  VPU time  231.94: CPU time  109.86
    DOS   :  VPU time   -0.00: CPU time   -0.00
    ------------------------------------------
      LOOP:  VPU time  242.29: CPU time  120.19

 eigenvalue-minimisations  :  1980
 total energy-change (2. order) : 0.2608297E+03  (-0.1611258E+04)
 number of electron   50.0000000 magnetization    5.0000000
 augmentation part    50.0000000 magnetization    5.0000000

 Free energy of the ion-electron system (eV)
  ---------------------------------------------------
  alpha Z        PSCENC =       228.18410549
  Ewald energy   TEWEN  =      9231.00278662
  -1/2 Hartree   DENC   =    -14629.34389242
  -V(xc)+E(xc)   XCENC  =       156.29197857
  PAW double counting   =      4356.65054997    -4692.71830440
  entropy T*S    EENTRO =        -0.00130815
  eigenvalues    EBANDS =       213.60678630
  atomic energy  EATOM  =      5397.15695484
  ---------------------------------------------------
  free energy    TOTEN  =       260.82965682 eV

  energy without entropy =      260.83096497  energy(sigma->0) =      260.82998386


--------------------------------------------------------------------------------------------------------




----------------------------------------- Iteration    1(   2)  ---------------------------------------


    EDDAV :  VPU time  232.46: CPU time  110.29
    DOS   :  VPU time   -0.00: CPU time   -0.00
    ------------------------------------------
      LOOP:  VPU time  233.41: CPU time  111.24

 eigenvalue-minimisations  :  1990
 total energy-change (2. order) :-0.2756126E+03  (-0.2623638E+03)
 number of electron   50.0000000 magnetization    5.0000000
 augmentation part    50.0000000 magnetization    5.0000000

 Free energy of the ion-electron system (eV)
  ---------------------------------------------------
  alpha Z        PSCENC =       228.18410549
  Ewald energy   TEWEN  =      9231.00278662
  -1/2 Hartree   DENC   =    -14629.34389242
  -V(xc)+E(xc)   XCENC  =       156.29197857
  PAW double counting   =      4356.65054997    -4692.71830440
  entropy T*S    EENTRO =        -0.00831542
  eigenvalues    EBANDS =       -61.99885242
  atomic energy  EATOM  =      5397.15695484
  ---------------------------------------------------
  free energy    TOTEN  =       -14.78298917 eV

  energy without entropy =      -14.77467375  energy(sigma->0) =      -14.78091031


--------------------------------------------------------------------------------------------------------




----------------------------------------- Iteration    1(   3)  ---------------------------------------


    EDDAV :  VPU time  248.63: CPU time  117.23
    DOS   :  VPU time   -0.00: CPU time   -0.00
    ------------------------------------------
      LOOP:  VPU time  249.77: CPU time  118.37

 eigenvalue-minimisations  :  2158
 total energy-change (2. order) :-0.1510056E+02  (-0.1445489E+02)
 number of electron   50.0000000 magnetization    5.0000000
 augmentation part    50.0000000 magnetization    5.0000000

 Free energy of the ion-electron system (eV)
  ---------------------------------------------------
  alpha Z        PSCENC =       228.18410549
  Ewald energy   TEWEN  =      9231.00278662
  -1/2 Hartree   DENC   =    -14629.34389242
  -V(xc)+E(xc)   XCENC  =       156.29197857
  PAW double counting   =      4356.65054997    -4692.71830440
  entropy T*S    EENTRO =         0.00240032
  eigenvalues    EBANDS =       -77.11013290
  atomic energy  EATOM  =      5397.15695484
  ---------------------------------------------------
  free energy    TOTEN  =       -29.88355392 eV

  energy without entropy =      -29.88595423  energy(sigma->0) =      -29.88415400


--------------------------------------------------------------------------------------------------------




----------------------------------------- Iteration    1(   4)  ---------------------------------------


    EDDAV :  VPU time  239.43: CPU time  112.95
    DOS   :  VPU time   -0.00: CPU time   -0.00
    ------------------------------------------
      LOOP:  VPU time  240.57: CPU time  114.09

 eigenvalue-minimisations  :  2059
 total energy-change (2. order) :-0.1299894E+00  (-0.1297894E+00)
 number of electron   50.0000000 magnetization    5.0000000
 augmentation part    50.0000000 magnetization    5.0000000

 Free energy of the ion-electron system (eV)
  ---------------------------------------------------
  alpha Z        PSCENC =       228.18410549
  Ewald energy   TEWEN  =      9231.00278662
  -1/2 Hartree   DENC   =    -14629.34389242
  -V(xc)+E(xc)   XCENC  =       156.29197857
  PAW double counting   =      4356.65054997    -4692.71830440
  entropy T*S    EENTRO =         0.00257588
  eigenvalues    EBANDS =       -77.24029788
  atomic energy  EATOM  =      5397.15695484
  ---------------------------------------------------
  free energy    TOTEN  =       -30.01354333 eV

  energy without entropy =      -30.01611921  energy(sigma->0) =      -30.01418730


--------------------------------------------------------------------------------------------------------




----------------------------------------- Iteration    1(   5)  ---------------------------------------


    EDDAV :  VPU time  258.76: CPU time  121.28
    DOS   :  VPU time   -0.00: CPU time   -0.00
    CHARGE:  VPU time   11.13: CPU time   11.13
    MIXING:  VPU time    0.06: CPU time    0.06
    ------------------------------------------
      LOOP:  VPU time  271.15: CPU time  133.66

 eigenvalue-minimisations  :  2263
 total energy-change (2. order) :-0.8582461E-03  (-0.8581169E-03)
 number of electron   49.9999897 magnetization    4.8399343
 augmentation part    28.3621788 magnetization    4.1649181

 Broyden mixing:
  rms(total) = 0.17097E+01    rms(broyden)= 0.17086E+01
  rms(prec ) = 0.18879E+01
  weight for this iteration     100.00

 Free energy of the ion-electron system (eV)
  ---------------------------------------------------
  alpha Z        PSCENC =       228.18410549
  Ewald energy   TEWEN  =      9231.00278662
  -1/2 Hartree   DENC   =    -14629.34389242
  -V(xc)+E(xc)   XCENC  =       156.29197857
  PAW double counting   =      4356.65054997    -4692.71830440
  entropy T*S    EENTRO =         0.00257651
  eigenvalues    EBANDS =       -77.24115676
  atomic energy  EATOM  =      5397.15695484
  ---------------------------------------------------
  free energy    TOTEN  =       -30.01440158 eV

  energy without entropy =      -30.01697809  energy(sigma->0) =      -30.01504570


--------------------------------------------------------------------------------------------------------




----------------------------------------- Iteration    1(   6)  ---------------------------------------


    POTLOK:  VPU time    7.80: CPU time    7.80
    SETDIJ:  VPU time    1.46: CPU time    1.46
    EDDIAG:  VPU time   23.34: CPU time   20.12
  RMM-DIIS:  VPU time  189.62: CPU time   93.19
    ORTHCH:  VPU time    4.22: CPU time    1.42
    DOS   :  VPU time   -0.00: CPU time   -0.00
    CHARGE:  VPU time   10.97: CPU time   10.97
    MIXING:  VPU time    0.07: CPU time    0.07
    ------------------------------------------
      LOOP:  VPU time  238.67: CPU time  136.22

 eigenvalue-minimisations  :  1996
 total energy-change (2. order) :-0.1572110E+01  (-0.4928951E+01)
 number of electron   49.9999970 magnetization    4.7059181
 augmentation part    32.3542112 magnetization    4.4438093

 Broyden mixing:
  rms(total) = 0.27244E+01    rms(broyden)= 0.27236E+01
  rms(prec ) = 0.32445E+01
  weight for this iteration     100.00

 eigenvalues of (default mixing * dielectric matrix)
  average eigenvalue GAMMA=   0.2858
  0.2858

 Free energy of the ion-electron system (eV)
  ---------------------------------------------------
  alpha Z        PSCENC =       228.18410549
  Ewald energy   TEWEN  =      9231.00278662
  -1/2 Hartree   DENC   =    -14536.88723451
  -V(xc)+E(xc)   XCENC  =       150.50629676
  PAW double counting   =      4295.35729285    -4610.48626785
  entropy T*S    EENTRO =        -0.01054044
  eigenvalues    EBANDS =      -186.40990530
  atomic energy  EATOM  =      5397.15695484
  ---------------------------------------------------
  free energy    TOTEN  =       -31.58651153 eV

  energy without entropy =      -31.57597109  energy(sigma->0) =      -31.58387642


--------------------------------------------------------------------------------------------------------




----------------------------------------- Iteration    1(   7)  ---------------------------------------


    POTLOK:  VPU time    7.82: CPU time    7.82
    SETDIJ:  VPU time    1.46: CPU time    1.46
    EDDIAG:  VPU time   23.37: CPU time   20.13
  RMM-DIIS:  VPU time  189.30: CPU time   93.09
    ORTHCH:  VPU time    4.57: CPU time    1.41
    DOS   :  VPU time   -0.00: CPU time   -0.00
    CHARGE:  VPU time   11.03: CPU time   11.03
    MIXING:  VPU time    0.08: CPU time    0.08
    ------------------------------------------
      LOOP:  VPU time  238.84: CPU time  136.22

 eigenvalue-minimisations  :  1994
 total energy-change (2. order) :-0.6181368E+00  (-0.1623065E+01)
 number of electron   49.9999991 magnetization    4.5780284
 augmentation part    31.4360148 magnetization    3.8227103

 Broyden mixing:
  rms(total) = 0.25670E+01    rms(broyden)= 0.25663E+01
  rms(prec ) = 0.32172E+01
  weight for this iteration     100.00

 eigenvalues of (default mixing * dielectric matrix)
  average eigenvalue GAMMA=   0.3874
  0.1642  0.6106

 Free energy of the ion-electron system (eV)
  ---------------------------------------------------
  alpha Z        PSCENC =       228.18410549
  Ewald energy   TEWEN  =      9231.00278662
  -1/2 Hartree   DENC   =    -14531.23172876
  -V(xc)+E(xc)   XCENC  =       151.30593050
  PAW double counting   =      4348.46255154    -4672.30964482
  entropy T*S    EENTRO =        -0.00208895
  eigenvalues    EBANDS =      -184.77351482
  atomic energy  EATOM  =      5397.15695484
  ---------------------------------------------------
  free energy    TOTEN  =       -32.20464837 eV

  energy without entropy =      -32.20255941  energy(sigma->0) =      -32.20412613


--------------------------------------------------------------------------------------------------------




----------------------------------------- Iteration    1(   8)  ---------------------------------------


    POTLOK:  VPU time    7.82: CPU time    7.82
    SETDIJ:  VPU time    1.46: CPU time    1.46
    EDDIAG:  VPU time   23.37: CPU time   20.13
  RMM-DIIS:  VPU time  189.42: CPU time   93.12
    ORTHCH:  VPU time    4.65: CPU time    1.41
    DOS   :  VPU time   -0.00: CPU time   -0.00
    CHARGE:  VPU time   11.35: CPU time   11.35
    MIXING:  VPU time    0.08: CPU time    0.08
    ------------------------------------------
      LOOP:  VPU time  239.53: CPU time  136.75

 eigenvalue-minimisations  :  1994
 total energy-change (2. order) : 0.2619917E+01  (-0.4715620E+00)
 number of electron   49.9999969 magnetization    4.5379000
 augmentation part    30.6855244 magnetization    3.9059561

 Broyden mixing:
  rms(total) = 0.27301E+01    rms(broyden)= 0.27289E+01
  rms(prec ) = 0.30989E+01
  weight for this iteration     100.00

 eigenvalues of (default mixing * dielectric matrix)
  average eigenvalue GAMMA=   0.3131
  0.6518  0.1853  0.1022

 Free energy of the ion-electron system (eV)
  ---------------------------------------------------
  alpha Z        PSCENC =       228.18410549
  Ewald energy   TEWEN  =      9231.00278662
  -1/2 Hartree   DENC   =    -14575.24249951
  -V(xc)+E(xc)   XCENC  =       151.97802988
  PAW double counting   =      4410.55181699    -4744.32409055
  entropy T*S    EENTRO =         0.00969411
  eigenvalues    EBANDS =      -128.90152897
  atomic energy  EATOM  =      5397.15695484
  ---------------------------------------------------
  free energy    TOTEN  =       -29.58473111 eV

  energy without entropy =      -29.59442522  energy(sigma->0) =      -29.58715464


--------------------------------------------------------------------------------------------------------




----------------------------------------- Iteration    1(   9)  ---------------------------------------


    POTLOK:  VPU time    7.81: CPU time    7.81
    SETDIJ:  VPU time    1.46: CPU time    1.46
    EDDIAG:  VPU time   23.37: CPU time   20.13
  RMM-DIIS:  VPU time  189.70: CPU time   93.23
    ORTHCH:  VPU time    4.18: CPU time    1.42
    DOS   :  VPU time   -0.00: CPU time   -0.00
    CHARGE:  VPU time   10.82: CPU time   10.82
    MIXING:  VPU time    0.09: CPU time    0.09
    ------------------------------------------
      LOOP:  VPU time  238.47: CPU time  135.98

 eigenvalue-minimisations  :  1997
 total energy-change (2. order) : 0.3832671E+01  (-0.1960633E+00)
 number of electron   49.9999927 magnetization    4.3836416
 augmentation part    30.9981301 magnetization    3.8055431

 Broyden mixing:
  rms(total) = 0.96018E+00    rms(broyden)= 0.95869E+00
  rms(prec ) = 0.10632E+01
  weight for this iteration     100.00

 eigenvalues of (default mixing * dielectric matrix)
  average eigenvalue GAMMA=   0.3889
  0.5937  0.5937  0.2454  0.1227

 Free energy of the ion-electron system (eV)
  ---------------------------------------------------
  alpha Z        PSCENC =       228.18410549
  Ewald energy   TEWEN  =      9231.00278662
  -1/2 Hartree   DENC   =    -14571.89464247
  -V(xc)+E(xc)   XCENC  =       151.94587939
  PAW double counting   =      4418.25756313    -4753.15182021
  entropy T*S    EENTRO =         0.00438633
  eigenvalues    EBANDS =      -127.25727350
  atomic energy  EATOM  =      5397.15695484
  ---------------------------------------------------
  free energy    TOTEN  =       -25.75206039 eV

  energy without entropy =      -25.75644672  energy(sigma->0) =      -25.75315697


--------------------------------------------------------------------------------------------------------




----------------------------------------- Iteration    1(  10)  ---------------------------------------


    POTLOK:  VPU time    7.83: CPU time    7.83
    SETDIJ:  VPU time    1.46: CPU time    1.46
    EDDIAG:  VPU time   23.37: CPU time   20.13
  RMM-DIIS:  VPU time  189.92: CPU time   93.34
    ORTHCH:  VPU time    4.02: CPU time    1.42
    DOS   :  VPU time   -0.00: CPU time   -0.00
    CHARGE:  VPU time   10.87: CPU time   10.87
    MIXING:  VPU time    0.10: CPU time    0.10
    ------------------------------------------
      LOOP:  VPU time  238.65: CPU time  136.22

 eigenvalue-minimisations  :  1999
 total energy-change (2. order) : 0.2111699E+00  (-0.3495290E-01)
 number of electron   49.9999910 magnetization    4.2751357
 augmentation part    30.8272445 magnetization    3.7248827

 Broyden mixing:
  rms(total) = 0.63421E+00    rms(broyden)= 0.63378E+00
  rms(prec ) = 0.74922E+00
  weight for this iteration     100.00

 eigenvalues of (default mixing * dielectric matrix)
  average eigenvalue GAMMA=   0.4457
  0.8015  0.5431  0.5431  0.2245  0.1163

 Free energy of the ion-electron system (eV)
  ---------------------------------------------------
  alpha Z        PSCENC =       228.18410549
  Ewald energy   TEWEN  =      9231.00278662
  -1/2 Hartree   DENC   =    -14580.40771857
  -V(xc)+E(xc)   XCENC  =       152.05151006
  PAW double counting   =      4454.63115221    -4791.88210417
  entropy T*S    EENTRO =        -0.00007671
  eigenvalues    EBANDS =      -116.27750028
  atomic energy  EATOM  =      5397.15695484
  ---------------------------------------------------
  free energy    TOTEN  =       -25.54089051 eV

  energy without entropy =      -25.54081380  energy(sigma->0) =      -25.54087133


--------------------------------------------------------------------------------------------------------




----------------------------------------- Iteration    1(  11)  ---------------------------------------


    POTLOK:  VPU time    7.85: CPU time    7.85
    SETDIJ:  VPU time    1.46: CPU time    1.46
    EDDIAG:  VPU time   23.36: CPU time   20.13
  RMM-DIIS:  VPU time  190.02: CPU time   93.39
    ORTHCH:  VPU time    4.14: CPU time    1.41
    DOS   :  VPU time   -0.00: CPU time   -0.00
    CHARGE:  VPU time   11.16: CPU time   11.16
    MIXING:  VPU time    0.11: CPU time    0.11
    ------------------------------------------
      LOOP:  VPU time  239.28: CPU time  136.68

 eigenvalue-minimisations  :  2000
 total energy-change (2. order) :-0.2829538E+00  (-0.1342497E-01)
 number of electron   49.9999930 magnetization    4.2277856
 augmentation part    30.9236362 magnetization    3.7130658

 Broyden mixing:
  rms(total) = 0.12571E+01    rms(broyden)= 0.12564E+01
  rms(prec ) = 0.17426E+01
  weight for this iteration     100.00

 eigenvalues of (default mixing * dielectric matrix)
  average eigenvalue GAMMA=   0.3954
  0.8376  0.5721  0.5721  0.2243  0.1161  0.0500

 Free energy of the ion-electron system (eV)
  ---------------------------------------------------
  alpha Z        PSCENC =       228.18410549
  Ewald energy   TEWEN  =      9231.00278662
  -1/2 Hartree   DENC   =    -14577.66382533
  -V(xc)+E(xc)   XCENC  =       151.91284833
  PAW double counting   =      4474.63422946    -4813.23859742
  entropy T*S    EENTRO =         0.00055312
  eigenvalues    EBANDS =      -117.81289943
  atomic energy  EATOM  =      5397.15695484
  ---------------------------------------------------
  free energy    TOTEN  =       -25.82384433 eV

  energy without entropy =      -25.82439745  energy(sigma->0) =      -25.82398261


--------------------------------------------------------------------------------------------------------




----------------------------------------- Iteration    1(  12)  ---------------------------------------


    POTLOK:  VPU time    7.90: CPU time    7.90
    SETDIJ:  VPU time    1.46: CPU time    1.46
    EDDIAG:  VPU time   23.38: CPU time   20.13
  RMM-DIIS:  VPU time  189.88: CPU time   93.32
    ORTHCH:  VPU time    4.00: CPU time    1.41
    DOS   :  VPU time   -0.00: CPU time   -0.00
    CHARGE:  VPU time   11.00: CPU time   11.00
    MIXING:  VPU time    0.12: CPU time    0.12
    ------------------------------------------
      LOOP:  VPU time  238.85: CPU time  136.44

 eigenvalue-minimisations  :  1998
 total energy-change (2. order) : 0.3233700E+00  (-0.6611283E-02)
 number of electron   49.9999915 magnetization    4.1728118
 augmentation part    30.9213073 magnetization    3.7062855

 Broyden mixing:
  rms(total) = 0.42867E+00    rms(broyden)= 0.42695E+00
  rms(prec ) = 0.51859E+00
  weight for this iteration     100.00

 eigenvalues of (default mixing * dielectric matrix)
  average eigenvalue GAMMA=   0.3750
  0.8679  0.5989  0.5989  0.1175  0.1998  0.1998  0.0420

 Free energy of the ion-electron system (eV)
  ---------------------------------------------------
  alpha Z        PSCENC =       228.18410549
  Ewald energy   TEWEN  =      9231.00278662
  -1/2 Hartree   DENC   =    -14576.90869474
  -V(xc)+E(xc)   XCENC  =       151.87382848
  PAW double counting   =      4482.98366163    -4822.14262096
  entropy T*S    EENTRO =         0.00221761
  eigenvalues    EBANDS =      -117.65271325
  atomic energy  EATOM  =      5397.15695484
  ---------------------------------------------------
  free energy    TOTEN  =       -25.50047429 eV

  energy without entropy =      -25.50269190  energy(sigma->0) =      -25.50102869


--------------------------------------------------------------------------------------------------------




----------------------------------------- Iteration    1(  13)  ---------------------------------------


    POTLOK:  VPU time    7.83: CPU time    7.83
    SETDIJ:  VPU time    1.46: CPU time    1.46
    EDDIAG:  VPU time   23.38: CPU time   20.13
  RMM-DIIS:  VPU time  189.90: CPU time   93.34
    ORTHCH:  VPU time    4.60: CPU time    1.42
    DOS   :  VPU time   -0.00: CPU time   -0.00
    CHARGE:  VPU time   10.93: CPU time   10.93
    MIXING:  VPU time    0.14: CPU time    0.14
    ------------------------------------------
      LOOP:  VPU time  239.44: CPU time  136.45

 eigenvalue-minimisations  :  1999
 total energy-change (2. order) :-0.8014319E-03  (-0.5831231E-02)
 number of electron   49.9999912 magnetization    3.9718778
 augmentation part    30.9278114 magnetization    3.5215421

 Broyden mixing:
  rms(total) = 0.35609E+00    rms(broyden)= 0.35571E+00
  rms(prec ) = 0.40955E+00
  weight for this iteration     100.00

 eigenvalues of (default mixing * dielectric matrix)
  average eigenvalue GAMMA=   0.4853
  1.5412  0.6137  0.6137  0.6262  0.2302  0.1166  0.0994  0.0417

 Free energy of the ion-electron system (eV)
  ---------------------------------------------------
  alpha Z        PSCENC =       228.18410549
  Ewald energy   TEWEN  =      9231.00278662
  -1/2 Hartree   DENC   =    -14577.03971871
  -V(xc)+E(xc)   XCENC  =       151.82848968
  PAW double counting   =      4491.53987667    -4831.26258192
  entropy T*S    EENTRO =         0.00455843
  eigenvalues    EBANDS =      -116.91574681
  atomic energy  EATOM  =      5397.15695484
  ---------------------------------------------------
  free energy    TOTEN  =       -25.50127572 eV

  energy without entropy =      -25.50583415  energy(sigma->0) =      -25.50241533


--------------------------------------------------------------------------------------------------------




----------------------------------------- Iteration    1(  14)  ---------------------------------------


    POTLOK:  VPU time    7.87: CPU time    7.87
    SETDIJ:  VPU time    1.46: CPU time    1.46
    EDDIAG:  VPU time   23.34: CPU time   20.12
  RMM-DIIS:  VPU time  189.94: CPU time   93.43
    ORTHCH:  VPU time    4.32: CPU time    1.42
    DOS   :  VPU time   -0.00: CPU time   -0.00
    CHARGE:  VPU time   10.90: CPU time   10.90
    MIXING:  VPU time    0.15: CPU time    0.15
    ------------------------------------------
      LOOP:  VPU time  239.11: CPU time  136.47

 eigenvalue-minimisations  :  2000
 total energy-change (2. order) :-0.1317949E-01  (-0.6844338E-02)
 number of electron   49.9999918 magnetization    3.7212418
 augmentation part    30.9349417 magnetization    3.3224920

 Broyden mixing:
  rms(total) = 0.26374E+00    rms(broyden)= 0.26360E+00
  rms(prec ) = 0.28696E+00
  weight for this iteration     100.00

 eigenvalues of (default mixing * dielectric matrix)
  average eigenvalue GAMMA=   0.5410
  1.8626  0.7063  0.7063  0.6216  0.4825  0.2319  0.1168  0.0991  0.0417

 Free energy of the ion-electron system (eV)
  ---------------------------------------------------
  alpha Z        PSCENC =       228.18410549
  Ewald energy   TEWEN  =      9231.00278662
  -1/2 Hartree   DENC   =    -14578.37418961
  -V(xc)+E(xc)   XCENC  =       151.71634607
  PAW double counting   =      4520.76758993    -4862.40545927
  entropy T*S    EENTRO =         0.00373836
  eigenvalues    EBANDS =      -113.56632764
  atomic energy  EATOM  =      5397.15695484
  ---------------------------------------------------
  free energy    TOTEN  =       -25.51445521 eV

  energy without entropy =      -25.51819357  energy(sigma->0) =      -25.51538980


--------------------------------------------------------------------------------------------------------




----------------------------------------- Iteration    1(  15)  ---------------------------------------


    POTLOK:  VPU time    7.86: CPU time    7.86
    SETDIJ:  VPU time    1.46: CPU time    1.46
    EDDIAG:  VPU time   23.38: CPU time   20.13
  RMM-DIIS:  VPU time  189.68: CPU time   93.23
    ORTHCH:  VPU time    4.20: CPU time    1.41
    DOS   :  VPU time   -0.00: CPU time   -0.00
    CHARGE:  VPU time   11.00: CPU time   11.00
    MIXING:  VPU time    0.17: CPU time    0.17
    ------------------------------------------
      LOOP:  VPU time  238.93: CPU time  136.44

 eigenvalue-minimisations  :  1996
 total energy-change (2. order) :-0.2733101E-01  (-0.8834782E-03)
 number of electron   49.9999928 magnetization    3.3673751
 augmentation part    30.9805171 magnetization    3.0111645

 Broyden mixing:
  rms(total) = 0.26960E+00    rms(broyden)= 0.26952E+00
  rms(prec ) = 0.30324E+00
  weight for this iteration     100.00

 eigenvalues of (default mixing * dielectric matrix)
  average eigenvalue GAMMA=   0.8213
  4.1506  0.8236  0.8236  0.8202  0.5533  0.5533  0.2311  0.1168  0.0991  0.0417

 Free energy of the ion-electron system (eV)
  ---------------------------------------------------
  alpha Z        PSCENC =       228.18410549
  Ewald energy   TEWEN  =      9231.00278662
  -1/2 Hartree   DENC   =    -14578.72656121
  -V(xc)+E(xc)   XCENC  =       151.56473445
  PAW double counting   =      4540.68816352    -4883.88739797
  entropy T*S    EENTRO =         0.00074028
  eigenvalues    EBANDS =      -111.52531224
  atomic energy  EATOM  =      5397.15695484
  ---------------------------------------------------
  free energy    TOTEN  =       -25.54178622 eV

  energy without entropy =      -25.54252650  energy(sigma->0) =      -25.54197129


--------------------------------------------------------------------------------------------------------




----------------------------------------- Iteration    1(  16)  ---------------------------------------


    POTLOK:  VPU time    7.90: CPU time    7.90
    SETDIJ:  VPU time    1.46: CPU time    1.46
    EDDIAG:  VPU time   23.36: CPU time   20.13
  RMM-DIIS:  VPU time  189.26: CPU time   93.09
    ORTHCH:  VPU time    4.31: CPU time    1.41
    DOS   :  VPU time   -0.00: CPU time   -0.00
    CHARGE:  VPU time   11.31: CPU time   11.31
    MIXING:  VPU time    0.18: CPU time    0.18
    ------------------------------------------
      LOOP:  VPU time  239.05: CPU time  136.75

 eigenvalue-minimisations  :  1993
 total energy-change (2. order) :-0.9996822E-03  (-0.4185579E-02)
 number of electron   49.9999918 magnetization    3.3252774
 augmentation part    31.0169197 magnetization    3.0460953

 Broyden mixing:
  rms(total) = 0.10456E+00    rms(broyden)= 0.10438E+00
  rms(prec ) = 0.12311E+00
  weight for this iteration     100.00

 eigenvalues of (default mixing * dielectric matrix)
  average eigenvalue GAMMA=   0.8509
  4.3656  0.8593  0.8593  0.9681  0.6274  0.5958  0.5958  0.2311  0.1168  0.0991
  0.0417

 Free energy of the ion-electron system (eV)
  ---------------------------------------------------
  alpha Z        PSCENC =       228.18410549
  Ewald energy   TEWEN  =      9231.00278662
  -1/2 Hartree   DENC   =    -14580.23796803
  -V(xc)+E(xc)   XCENC  =       151.41883568
  PAW double counting   =      4559.49005230    -4904.10613745
  entropy T*S    EENTRO =        -0.00053350
  eigenvalues    EBANDS =      -108.45088184
  atomic energy  EATOM  =      5397.15695484
  ---------------------------------------------------
  free energy    TOTEN  =       -25.54278590 eV

  energy without entropy =      -25.54225240  energy(sigma->0) =      -25.54265253


--------------------------------------------------------------------------------------------------------




----------------------------------------- Iteration    1(  17)  ---------------------------------------


    POTLOK:  VPU time    7.90: CPU time    7.90
    SETDIJ:  VPU time    1.46: CPU time    1.46
    EDDIAG:  VPU time   23.35: CPU time   20.12
  RMM-DIIS:  VPU time  189.76: CPU time   93.26
    ORTHCH:  VPU time    5.05: CPU time    1.41
    DOS   :  VPU time   -0.00: CPU time   -0.00
    CHARGE:  VPU time   11.01: CPU time   11.01
    MIXING:  VPU time    0.20: CPU time    0.20
    ------------------------------------------
      LOOP:  VPU time  239.82: CPU time  136.45

 eigenvalue-minimisations  :  1997
 total energy-change (2. order) :-0.1031993E-01  (-0.1029724E-02)
 number of electron   49.9999909 magnetization    3.2574409
 augmentation part    31.0083466 magnetization    3.0198875

 Broyden mixing:
  rms(total) = 0.91909E-01    rms(broyden)= 0.91731E-01
  rms(prec ) = 0.97598E-01
  weight for this iteration     100.00

 eigenvalues of (default mixing * dielectric matrix)
  average eigenvalue GAMMA=   0.9268
  4.7565  1.1086  1.1086  1.0633  0.6837  0.6837  0.6144  0.6144  0.2311  0.1168
  0.0991  0.0417

 Free energy of the ion-electron system (eV)
  ---------------------------------------------------
  alpha Z        PSCENC =       228.18410549
  Ewald energy   TEWEN  =      9231.00278662
  -1/2 Hartree   DENC   =    -14581.34265135
  -V(xc)+E(xc)   XCENC  =       151.47236506
  PAW double counting   =      4552.38173003    -4896.20307150
  entropy T*S    EENTRO =         0.00037372
  eigenvalues    EBANDS =      -108.20569874
  atomic energy  EATOM  =      5397.15695484
  ---------------------------------------------------
  free energy    TOTEN  =       -25.55310583 eV

  energy without entropy =      -25.55347955  energy(sigma->0) =      -25.55319926


--------------------------------------------------------------------------------------------------------




----------------------------------------- Iteration    1(  18)  ---------------------------------------


    POTLOK:  VPU time    7.87: CPU time    7.87
    SETDIJ:  VPU time    1.46: CPU time    1.46
    EDDIAG:  VPU time   23.37: CPU time   20.13
  RMM-DIIS:  VPU time  188.41: CPU time   92.66
    ORTHCH:  VPU time    3.99: CPU time    1.41
    DOS   :  VPU time   -0.00: CPU time   -0.00
    CHARGE:  VPU time   10.93: CPU time   10.93
    MIXING:  VPU time    0.22: CPU time    0.22
    ------------------------------------------
      LOOP:  VPU time  237.27: CPU time  135.71

 eigenvalue-minimisations  :  1983
 total energy-change (2. order) :-0.7511748E-03  (-0.1215564E-02)
 number of electron   49.9999908 magnetization    3.1719707
 augmentation part    30.9741400 magnetization    2.9633279

 Broyden mixing:
  rms(total) = 0.27006E-01    rms(broyden)= 0.26892E-01
  rms(prec ) = 0.28119E-01
  weight for this iteration     100.00

 eigenvalues of (default mixing * dielectric matrix)
  average eigenvalue GAMMA=   1.0345
  5.7305  1.5860  1.0777  1.0777  0.8167  0.8167  0.6099  0.6099  0.6343  0.2311
  0.1168  0.0991  0.0417

 Free energy of the ion-electron system (eV)
  ---------------------------------------------------
  alpha Z        PSCENC =       228.18410549
  Ewald energy   TEWEN  =      9231.00278662
  -1/2 Hartree   DENC   =    -14583.60254077
  -V(xc)+E(xc)   XCENC  =       151.56170267
  PAW double counting   =      4546.86743927    -4889.96863070
  entropy T*S    EENTRO =         0.00133517
  eigenvalues    EBANDS =      -106.75700960
  atomic energy  EATOM  =      5397.15695484
  ---------------------------------------------------
  free energy    TOTEN  =       -25.55385701 eV

  energy without entropy =      -25.55519218  energy(sigma->0) =      -25.55419080


--------------------------------------------------------------------------------------------------------




----------------------------------------- Iteration    1(  19)  ---------------------------------------


    POTLOK:  VPU time    7.83: CPU time    7.83
    SETDIJ:  VPU time    1.46: CPU time    1.46
    EDDIAG:  VPU time   23.37: CPU time   20.13
  RMM-DIIS:  VPU time  188.32: CPU time   92.65
    ORTHCH:  VPU time    3.97: CPU time    1.41
    DOS   :  VPU time   -0.00: CPU time   -0.00
    CHARGE:  VPU time   11.18: CPU time   11.18
    MIXING:  VPU time    0.24: CPU time    0.24
    ------------------------------------------
      LOOP:  VPU time  237.60: CPU time  136.12

 eigenvalue-minimisations  :  1983
 total energy-change (2. order) : 0.5412700E-03  (-0.1798641E-03)
 number of electron   49.9999908 magnetization    3.1227584
 augmentation part    30.9642465 magnetization    2.9272856

 Broyden mixing:
  rms(total) = 0.39074E-01    rms(broyden)= 0.39063E-01
  rms(prec ) = 0.42333E-01
  weight for this iteration     100.00

 eigenvalues of (default mixing * dielectric matrix)
  average eigenvalue GAMMA=   1.0642
  6.1711  1.7962  1.0569  1.0569  0.8746  0.7353  0.7353  0.7213  0.6314  0.6314
  0.2311  0.1168  0.0991  0.0417

 Free energy of the ion-electron system (eV)
  ---------------------------------------------------
  alpha Z        PSCENC =       228.18410549
  Ewald energy   TEWEN  =      9231.00278662
  -1/2 Hartree   DENC   =    -14584.97348669
  -V(xc)+E(xc)   XCENC  =       151.59600777
  PAW double counting   =      4542.64730097    -4885.39693474
  entropy T*S    EENTRO =         0.00146930
  eigenvalues    EBANDS =      -105.77151930
  atomic energy  EATOM  =      5397.15695484
  ---------------------------------------------------
  free energy    TOTEN  =       -25.55331574 eV

  energy without entropy =      -25.55478504  energy(sigma->0) =      -25.55368306


--------------------------------------------------------------------------------------------------------




----------------------------------------- Iteration    1(  20)  ---------------------------------------


    POTLOK:  VPU time    7.81: CPU time    7.81
    SETDIJ:  VPU time    1.46: CPU time    1.46
    EDDIAG:  VPU time   23.35: CPU time   20.13
  RMM-DIIS:  VPU time  189.43: CPU time   93.09
    ORTHCH:  VPU time    4.59: CPU time    1.43
    DOS   :  VPU time   -0.00: CPU time   -0.00
    CHARGE:  VPU time   11.17: CPU time   11.17
    MIXING:  VPU time    0.27: CPU time    0.27
    ------------------------------------------
      LOOP:  VPU time  239.18: CPU time  136.44

 eigenvalue-minimisations  :  1993
 total energy-change (2. order) : 0.4394882E-03  (-0.4187216E-04)
 number of electron   49.9999908 magnetization    3.1032160
 augmentation part    30.9619637 magnetization    2.9136907

 Broyden mixing:
  rms(total) = 0.20101E-01    rms(broyden)= 0.20099E-01
  rms(prec ) = 0.21828E-01
  weight for this iteration     100.00

 eigenvalues of (default mixing * dielectric matrix)
  average eigenvalue GAMMA=   1.1182
  6.5587  2.3078  1.1173  1.1173  0.8972  0.8972  0.7660  0.7660  0.6165  0.6165
  0.6237  0.2311  0.1168  0.0991  0.0417

 Free energy of the ion-electron system (eV)
  ---------------------------------------------------
  alpha Z        PSCENC =       228.18410549
  Ewald energy   TEWEN  =      9231.00278662
  -1/2 Hartree   DENC   =    -14585.59510819
  -V(xc)+E(xc)   XCENC  =       151.60409397
  PAW double counting   =      4538.76586688    -4881.27988346
  entropy T*S    EENTRO =         0.00105413
  eigenvalues    EBANDS =      -105.39274652
  atomic energy  EATOM  =      5397.15695484
  ---------------------------------------------------
  free energy    TOTEN  =       -25.55287625 eV

  energy without entropy =      -25.55393038  energy(sigma->0) =      -25.55313978


--------------------------------------------------------------------------------------------------------




----------------------------------------- Iteration    1(  21)  ---------------------------------------


    POTLOK:  VPU time    7.82: CPU time    7.82
    SETDIJ:  VPU time    1.46: CPU time    1.46
    EDDIAG:  VPU time   23.37: CPU time   20.14
  RMM-DIIS:  VPU time  189.41: CPU time   93.09
    ORTHCH:  VPU time    4.35: CPU time    1.41
    DOS   :  VPU time   -0.00: CPU time   -0.00
    CHARGE:  VPU time   11.16: CPU time   11.16
    MIXING:  VPU time    0.29: CPU time    0.29
    ------------------------------------------
      LOOP:  VPU time  238.96: CPU time  136.47

 eigenvalue-minimisations  :  1993
 total energy-change (2. order) :-0.4675664E-03  (-0.3164064E-04)
 number of electron   49.9999908 magnetization    3.1043164
 augmentation part    30.9635697 magnetization    2.9185429

 Broyden mixing:
  rms(total) = 0.10788E-01    rms(broyden)= 0.10776E-01
  rms(prec ) = 0.12741E-01
  weight for this iteration     100.00

 eigenvalues of (default mixing * dielectric matrix)
  average eigenvalue GAMMA=   1.1496
  6.5939  2.4860  1.4036  1.1167  1.1167  0.8682  0.8682  0.6185  0.6185  0.8275
  0.7470  0.6402  0.2311  0.1168  0.0991  0.0417

 Free energy of the ion-electron system (eV)
  ---------------------------------------------------
  alpha Z        PSCENC =       228.18410549
  Ewald energy   TEWEN  =      9231.00278662
  -1/2 Hartree   DENC   =    -14585.70050985
  -V(xc)+E(xc)   XCENC  =       151.60577785
  PAW double counting   =      4535.95785374    -4878.33779433
  entropy T*S    EENTRO =         0.00063500
  eigenvalues    EBANDS =      -105.42315318
  atomic energy  EATOM  =      5397.15695484
  ---------------------------------------------------
  free energy    TOTEN  =       -25.55334382 eV

  energy without entropy =      -25.55397881  energy(sigma->0) =      -25.55350257


--------------------------------------------------------------------------------------------------------




----------------------------------------- Iteration    1(  22)  ---------------------------------------


    POTLOK:  VPU time    7.82: CPU time    7.82
    SETDIJ:  VPU time    1.46: CPU time    1.46
    EDDIAG:  VPU time   23.37: CPU time   20.13
  RMM-DIIS:  VPU time  188.52: CPU time   92.69
    ORTHCH:  VPU time    4.11: CPU time    1.42
    DOS   :  VPU time   -0.00: CPU time   -0.00
    CHARGE:  VPU time   11.31: CPU time   11.31
    MIXING:  VPU time    0.31: CPU time    0.31
    ------------------------------------------
      LOOP:  VPU time  238.11: CPU time  136.33

 eigenvalue-minimisations  :  1983
 total energy-change (2. order) :-0.1586364E-02  (-0.1079165E-04)
 number of electron   49.9999908 magnetization    3.1007707
 augmentation part    30.9646986 magnetization    2.9160407

 Broyden mixing:
  rms(total) = 0.21100E-02    rms(broyden)= 0.20834E-02
  rms(prec ) = 0.23411E-02
  weight for this iteration     100.00

 eigenvalues of (default mixing * dielectric matrix)
  average eigenvalue GAMMA=   1.1539
  6.6674  2.5328  1.7720  1.1086  1.1086  0.8736  0.8736  0.8062  0.8062  0.6196
  0.6196  0.7067  0.6323  0.2311  0.1168  0.0991  0.0417

 Free energy of the ion-electron system (eV)
  ---------------------------------------------------
  alpha Z        PSCENC =       228.18410549
  Ewald energy   TEWEN  =      9231.00278662
  -1/2 Hartree   DENC   =    -14585.52330881
  -V(xc)+E(xc)   XCENC  =       151.60438267
  PAW double counting   =      4534.93916434    -4877.30353388
  entropy T*S    EENTRO =         0.00076476
  eigenvalues    EBANDS =      -105.61624621
  atomic energy  EATOM  =      5397.15695484
  ---------------------------------------------------
  free energy    TOTEN  =       -25.55493018 eV

  energy without entropy =      -25.55569494  energy(sigma->0) =      -25.55512137


--------------------------------------------------------------------------------------------------------




----------------------------------------- Iteration    1(  23)  ---------------------------------------


    POTLOK:  VPU time    7.79: CPU time    7.79
    SETDIJ:  VPU time    1.46: CPU time    1.46
    EDDIAG:  VPU time   23.36: CPU time   20.13
  RMM-DIIS:  VPU time  159.22: CPU time   80.04
    ORTHCH:  VPU time    3.97: CPU time    1.41
    DOS   :  VPU time   -0.00: CPU time   -0.00
    CHARGE:  VPU time   11.15: CPU time   11.15
    MIXING:  VPU time    0.34: CPU time    0.34
    ------------------------------------------
      LOOP:  VPU time  208.39: CPU time  123.41

 eigenvalue-minimisations  :  1666
 total energy-change (2. order) :-0.9640631E-03  (-0.3742554E-05)
 number of electron   49.9999908 magnetization    3.0990838
 augmentation part    30.9648393 magnetization    2.9153793

 Broyden mixing:
  rms(total) = 0.18340E-02    rms(broyden)= 0.18317E-02
  rms(prec ) = 0.20187E-02
  weight for this iteration     100.00

 eigenvalues of (default mixing * dielectric matrix)
  average eigenvalue GAMMA=   1.1639
  6.6692  2.5522  2.1225  1.1237  1.1237  1.0188  1.0188  0.8079  0.8079  0.2311
  0.6180  0.6180  0.6677  0.6677  0.6455  0.1168  0.0991  0.0417

 Free energy of the ion-electron system (eV)
  ---------------------------------------------------
  alpha Z        PSCENC =       228.18410549
  Ewald energy   TEWEN  =      9231.00278662
  -1/2 Hartree   DENC   =    -14585.47311811
  -V(xc)+E(xc)   XCENC  =       151.60224546
  PAW double counting   =      4535.05740996    -4877.45575068
  entropy T*S    EENTRO =         0.00076207
  eigenvalues    EBANDS =      -105.63128989
  atomic energy  EATOM  =      5397.15695484
  ---------------------------------------------------
  free energy    TOTEN  =       -25.55589424 eV

  energy without entropy =      -25.55665632  energy(sigma->0) =      -25.55608476


--------------------------------------------------------------------------------------------------------




----------------------------------------- Iteration    1(  24)  ---------------------------------------


    POTLOK:  VPU time    7.80: CPU time    7.80
    SETDIJ:  VPU time    1.46: CPU time    1.46
    EDDIAG:  VPU time   23.34: CPU time   20.12
  RMM-DIIS:  VPU time  151.20: CPU time   76.57
    ORTHCH:  VPU time    3.98: CPU time    1.41
    DOS   :  VPU time   -0.00: CPU time   -0.00
    CHARGE:  VPU time   11.00: CPU time   11.00
    MIXING:  VPU time    0.36: CPU time    0.36
    ------------------------------------------
      LOOP:  VPU time  200.23: CPU time  119.80

 eigenvalue-minimisations  :  1579
 total energy-change (2. order) :-0.6771920E-03  (-0.2623675E-05)
 number of electron   49.9999908 magnetization    3.0961503
 augmentation part    30.9646499 magnetization    2.9130504

 Broyden mixing:
  rms(total) = 0.84500E-03    rms(broyden)= 0.83987E-03
  rms(prec ) = 0.98649E-03
  weight for this iteration     100.00

 eigenvalues of (default mixing * dielectric matrix)
  average eigenvalue GAMMA=   1.2058
  6.7040  3.0586  2.2677  1.1215  1.1215  1.1475  1.1475  0.8694  0.8694  0.2311
  0.8426  0.6196  0.6196  0.7051  0.7051  0.6226  0.1168  0.0991  0.0417

 Free energy of the ion-electron system (eV)
  ---------------------------------------------------
  alpha Z        PSCENC =       228.18410549
  Ewald energy   TEWEN  =      9231.00278662
  -1/2 Hartree   DENC   =    -14585.44184892
  -V(xc)+E(xc)   XCENC  =       151.60141556
  PAW double counting   =      4535.12986387    -4877.54283132
  entropy T*S    EENTRO =         0.00078787
  eigenvalues    EBANDS =      -105.64780545
  atomic energy  EATOM  =      5397.15695484
  ---------------------------------------------------
  free energy    TOTEN  =       -25.55657144 eV

  energy without entropy =      -25.55735931  energy(sigma->0) =      -25.55676840


--------------------------------------------------------------------------------------------------------




----------------------------------------- Iteration    1(  25)  ---------------------------------------


    POTLOK:  VPU time    7.80: CPU time    7.80
    SETDIJ:  VPU time    1.46: CPU time    1.46
    EDDIAG:  VPU time   23.35: CPU time   20.13
  RMM-DIIS:  VPU time  150.60: CPU time   76.24
    ORTHCH:  VPU time    4.18: CPU time    1.41
    DOS   :  VPU time   -0.00: CPU time   -0.00
    CHARGE:  VPU time   11.15: CPU time   11.15
    MIXING:  VPU time    0.39: CPU time    0.39
    ------------------------------------------
      LOOP:  VPU time  200.06: CPU time  119.70

 eigenvalue-minimisations  :  1571
 total energy-change (2. order) :-0.4410851E-03  (-0.3445570E-05)
 number of electron   49.9999908 magnetization    3.0950352
 augmentation part    30.9649104 magnetization    2.9125892

 Broyden mixing:
  rms(total) = 0.10359E-02    rms(broyden)= 0.10346E-02
  rms(prec ) = 0.11466E-02
  weight for this iteration     100.00

 eigenvalues of (default mixing * dielectric matrix)
  average eigenvalue GAMMA=   1.2268
  6.7228  3.5975  2.3027  1.4388  1.1214  1.1214  1.0477  1.0477  0.2311  0.1168
  0.0991  0.0417  0.8446  0.8446  0.6198  0.6198  0.7117  0.7117  0.6857  0.6105

 Free energy of the ion-electron system (eV)
  ---------------------------------------------------
  alpha Z        PSCENC =       228.18410549
  Ewald energy   TEWEN  =      9231.00278662
  -1/2 Hartree   DENC   =    -14585.41473451
  -V(xc)+E(xc)   XCENC  =       151.60005930
  PAW double counting   =      4535.20268193    -4877.62917962
  entropy T*S    EENTRO =         0.00078380
  eigenvalues    EBANDS =      -105.66047037
  atomic energy  EATOM  =      5397.15695484
  ---------------------------------------------------
  free energy    TOTEN  =       -25.55701252 eV

  energy without entropy =      -25.55779632  energy(sigma->0) =      -25.55720847


--------------------------------------------------------------------------------------------------------




----------------------------------------- Iteration    1(  26)  ---------------------------------------


    POTLOK:  VPU time    7.80: CPU time    7.80
    SETDIJ:  VPU time    1.46: CPU time    1.46
    EDDIAG:  VPU time   23.36: CPU time   20.13
  RMM-DIIS:  VPU time  136.53: CPU time   70.21
    ORTHCH:  VPU time    4.05: CPU time    1.41
    DOS   :  VPU time   -0.00: CPU time   -0.00
    CHARGE:  VPU time   11.14: CPU time   11.14
    MIXING:  VPU time    0.42: CPU time    0.42
    ------------------------------------------
      LOOP:  VPU time  185.83: CPU time  113.63

 eigenvalue-minimisations  :  1419
 total energy-change (2. order) :-0.1369658E-03  (-0.1073543E-05)
 number of electron   49.9999908 magnetization    3.0941754
 augmentation part    30.9649050 magnetization    2.9120953

 Broyden mixing:
  rms(total) = 0.67976E-03    rms(broyden)= 0.67787E-03
  rms(prec ) = 0.75708E-03
  weight for this iteration     100.00

 eigenvalues of (default mixing * dielectric matrix)
  average eigenvalue GAMMA=   1.3238
  6.8066  5.0078  2.4650  2.0457  1.1200  1.1200  1.1128  1.1128  0.0417  0.1168
  0.0991  0.2311  0.8753  0.8753  0.7740  0.7740  0.6191  0.6191  0.7040  0.6395
  0.6395

 Free energy of the ion-electron system (eV)
  ---------------------------------------------------
  alpha Z        PSCENC =       228.18410549
  Ewald energy   TEWEN  =      9231.00278662
  -1/2 Hartree   DENC   =    -14585.41177577
  -V(xc)+E(xc)   XCENC  =       151.59979032
  PAW double counting   =      4535.32158816    -4877.75204348
  entropy T*S    EENTRO =         0.00079480
  eigenvalues    EBANDS =      -105.65935047
  atomic energy  EATOM  =      5397.15695484
  ---------------------------------------------------
  free energy    TOTEN  =       -25.55714949 eV

  energy without entropy =      -25.55794429  energy(sigma->0) =      -25.55734819


--------------------------------------------------------------------------------------------------------




----------------------------------------- Iteration    1(  27)  ---------------------------------------


    POTLOK:  VPU time    7.79: CPU time    7.79
    SETDIJ:  VPU time    1.46: CPU time    1.46
    EDDIAG:  VPU time   23.35: CPU time   20.13
  RMM-DIIS:  VPU time  129.96: CPU time   67.32
    ORTHCH:  VPU time    3.96: CPU time    1.41
    DOS   :  VPU time   -0.00: CPU time   -0.00
    CHARGE:  VPU time   10.98: CPU time   10.98
    MIXING:  VPU time    0.45: CPU time    0.45
    ------------------------------------------
      LOOP:  VPU time  178.94: CPU time  110.52

 eigenvalue-minimisations  :  1346
 total energy-change (2. order) :-0.4908095E-04  (-0.5613203E-06)
 number of electron   49.9999908 magnetization    3.0939021
 augmentation part    30.9649281 magnetization    2.9121078

 Broyden mixing:
  rms(total) = 0.33057E-03    rms(broyden)= 0.33021E-03
  rms(prec ) = 0.36696E-03
  weight for this iteration     100.00

 eigenvalues of (default mixing * dielectric matrix)
  average eigenvalue GAMMA=   1.3450
  6.8469  5.5715  2.5512  2.2096  1.1191  1.1191  1.1328  1.1328  0.2311  0.1168
  0.0991  0.0417  0.9248  0.9248  0.8287  0.8287  0.6193  0.6193  0.7058  0.7058
  0.6306  0.6306

 Free energy of the ion-electron system (eV)
  ---------------------------------------------------
  alpha Z        PSCENC =       228.18410549
  Ewald energy   TEWEN  =      9231.00278662
  -1/2 Hartree   DENC   =    -14585.41560860
  -V(xc)+E(xc)   XCENC  =       151.59979167
  PAW double counting   =      4535.39265931    -4877.82319721
  entropy T*S    EENTRO =         0.00079740
  eigenvalues    EBANDS =      -105.65548808
  atomic energy  EATOM  =      5397.15695484
  ---------------------------------------------------
  free energy    TOTEN  =       -25.55719857 eV

  energy without entropy =      -25.55799597  energy(sigma->0) =      -25.55739792


--------------------------------------------------------------------------------------------------------




----------------------------------------- Iteration    1(  28)  ---------------------------------------


    POTLOK:  VPU time    7.78: CPU time    7.78
    SETDIJ:  VPU time    1.46: CPU time    1.46
    EDDIAG:  VPU time   23.36: CPU time   20.13
  RMM-DIIS:  VPU time  118.10: CPU time   62.17
    ORTHCH:  VPU time    4.35: CPU time    1.42
    DOS   :  VPU time   -0.00: CPU time   -0.00
    CHARGE:  VPU time   11.14: CPU time   11.14
    MIXING:  VPU time    0.48: CPU time    0.48
    ------------------------------------------
      LOOP:  VPU time  167.70: CPU time  105.60

 eigenvalue-minimisations  :  1217
 total energy-change (2. order) :-0.1284664E-04  (-0.1384182E-06)
 number of electron   49.9999908 magnetization    3.0937178
 augmentation part    30.9648356 magnetization    2.9120326

 Broyden mixing:
  rms(total) = 0.19992E-03    rms(broyden)= 0.19939E-03
  rms(prec ) = 0.23005E-03
  weight for this iteration     100.00

 eigenvalues of (default mixing * dielectric matrix)
  average eigenvalue GAMMA=   1.3613
  6.8657  5.8445  2.5249  2.5249  1.1190  1.1190  0.0417  0.1168  0.0991  0.2311
  1.1756  1.1756  0.9875  0.9875  0.8806  0.8806  0.6193  0.6193  0.8212  0.7163
  0.7163  0.6217  0.6217

 Free energy of the ion-electron system (eV)
  ---------------------------------------------------
  alpha Z        PSCENC =       228.18410549
  Ewald energy   TEWEN  =      9231.00278662
  -1/2 Hartree   DENC   =    -14585.42869886
  -V(xc)+E(xc)   XCENC  =       151.60010114
  PAW double counting   =      4535.39037892    -4877.81740806
  entropy T*S    EENTRO =         0.00079878
  eigenvalues    EBANDS =      -105.64623028
  atomic energy  EATOM  =      5397.15695484
  ---------------------------------------------------
  free energy    TOTEN  =       -25.55721141 eV

  energy without entropy =      -25.55801019  energy(sigma->0) =      -25.55741111


--------------------------------------------------------------------------------------------------------




----------------------------------------- Iteration    1(  29)  ---------------------------------------


    POTLOK:  VPU time    7.77: CPU time    7.77
    SETDIJ:  VPU time    1.46: CPU time    1.46
    EDDIAG:  VPU time   23.34: CPU time   20.13
  RMM-DIIS:  VPU time  110.18: CPU time   58.43
    ORTHCH:  VPU time    4.05: CPU time    1.41
    DOS   :  VPU time   -0.00: CPU time   -0.00
    CHARGE:  VPU time   11.14: CPU time   11.14
    MIXING:  VPU time    0.52: CPU time    0.52
    ------------------------------------------
      LOOP:  VPU time  159.53: CPU time  101.91

 eigenvalue-minimisations  :  1093
 total energy-change (2. order) :-0.5112486E-05  (-0.5472283E-07)
 number of electron   49.9999908 magnetization    3.0936088
 augmentation part    30.9648689 magnetization    2.9119756

 Broyden mixing:
  rms(total) = 0.14948E-03    rms(broyden)= 0.14879E-03
  rms(prec ) = 0.18405E-03
  weight for this iteration     100.00

 eigenvalues of (default mixing * dielectric matrix)
  average eigenvalue GAMMA=   1.3685
  6.8858  5.9856  2.6920  2.6117  1.1190  1.1190  1.4288  0.0417  0.1168  0.0991
  0.2311  0.9962  0.9962  1.0268  1.0268  0.8838  0.8838  0.6193  0.6193  0.7669
  0.7669  0.6544  0.6544  0.6175

 Free energy of the ion-electron system (eV)
  ---------------------------------------------------
  alpha Z        PSCENC =       228.18410549
  Ewald energy   TEWEN  =      9231.00278662
  -1/2 Hartree   DENC   =    -14585.43439170
  -V(xc)+E(xc)   XCENC  =       151.60020782
  PAW double counting   =      4535.37035223    -4877.79529565
  entropy T*S    EENTRO =         0.00080198
  eigenvalues    EBANDS =      -105.64273816
  atomic energy  EATOM  =      5397.15695484
  ---------------------------------------------------
  free energy    TOTEN  =       -25.55721653 eV

  energy without entropy =      -25.55801851  energy(sigma->0) =      -25.55741702


--------------------------------------------------------------------------------------------------------




----------------------------------------- Iteration    1(  30)  ---------------------------------------


    POTLOK:  VPU time    7.78: CPU time    7.78
    SETDIJ:  VPU time    1.46: CPU time    1.46
    EDDIAG:  VPU time   23.35: CPU time   20.13
  RMM-DIIS:  VPU time   94.01: CPU time   50.16
    ORTHCH:  VPU time    3.99: CPU time    1.41
    DOS   :  VPU time   -0.00: CPU time   -0.00
    CHARGE:  VPU time   11.14: CPU time   11.14
    MIXING:  VPU time    0.55: CPU time    0.55
    ------------------------------------------
      LOOP:  VPU time  143.33: CPU time   93.67

 eigenvalue-minimisations  :   781
 total energy-change (2. order) :-0.1876430E-05  (-0.1621431E-07)
 number of electron   49.9999908 magnetization    3.0935373
 augmentation part    30.9648454 magnetization    2.9119502

 Broyden mixing:
  rms(total) = 0.38478E-04    rms(broyden)= 0.38085E-04
  rms(prec ) = 0.46310E-04
  weight for this iteration     100.00

 eigenvalues of (default mixing * dielectric matrix)
  average eigenvalue GAMMA=   1.3987
  6.9256  6.1050  3.1992  2.6037  1.9435  1.1190  1.1190  1.1851  1.1851  0.2311
  0.1168  0.0991  0.0417  0.9849  0.9849  0.8771  0.8771  0.6193  0.6193  0.7719
  0.7719  0.6683  0.6683  0.6250  0.6250

 Free energy of the ion-electron system (eV)
  ---------------------------------------------------
  alpha Z        PSCENC =       228.18410549
  Ewald energy   TEWEN  =      9231.00278662
  -1/2 Hartree   DENC   =    -14585.43832485
  -V(xc)+E(xc)   XCENC  =       151.60025914
  PAW double counting   =      4535.35889011    -4877.78353593
  entropy T*S    EENTRO =         0.00080129
  eigenvalues    EBANDS =      -105.63915510
  atomic energy  EATOM  =      5397.15695484
  ---------------------------------------------------
  free energy    TOTEN  =       -25.55721840 eV

  energy without entropy =      -25.55801970  energy(sigma->0) =      -25.55741873


--------------------------------------------------------------------------------------------------------




----------------------------------------- Iteration    1(  31)  ---------------------------------------


    POTLOK:  VPU time    7.78: CPU time    7.78
    SETDIJ:  VPU time    1.46: CPU time    1.46
    EDDIAG:  VPU time   23.37: CPU time   20.13
  RMM-DIIS:  VPU time   85.76: CPU time   45.90
    ORTHCH:  VPU time    4.31: CPU time    1.41
    DOS   :  VPU time   -0.00: CPU time   -0.00
    ------------------------------------------
      LOOP:  VPU time  123.75: CPU time   77.74

 eigenvalue-minimisations  :   611
 total energy-change (2. order) :-0.5434258E-06  (-0.6125659E-08)
 number of electron   49.9999908 magnetization    3.0935373
 augmentation part    30.9648454 magnetization    2.9119502

 Free energy of the ion-electron system (eV)
  ---------------------------------------------------
  alpha Z        PSCENC =       228.18410549
  Ewald energy   TEWEN  =      9231.00278662
  -1/2 Hartree   DENC   =    -14585.43973957
  -V(xc)+E(xc)   XCENC  =       151.60024340
  PAW double counting   =      4535.35397473    -4877.77899468
  entropy T*S    EENTRO =         0.00080067
  eigenvalues    EBANDS =      -105.63735044
  atomic energy  EATOM  =      5397.15695484
  ---------------------------------------------------
  free energy    TOTEN  =       -25.55721895 eV

  energy without entropy =      -25.55801961  energy(sigma->0) =      -25.55741911


--------------------------------------------------------------------------------------------------------




 average (electrostatic) potential at core
  the test charge radii are     0.9791
  (the norm of the test charge is              1.0000)
       1 -47.0847       2 -47.4148       3 -47.4215       4 -47.4148       5 -47.0847
 
 
 
 E-fermi :  -0.0629     XC(G=0):  -7.6268     alpha+bet : -5.8801
   add alpha+bet to get absolut eigen values

 spin component 1

 k-point   1 :       0.0000    0.0000    0.0000
  band No.  band energies     occupation 
      1      -8.4905      1.00000
      2      -7.2816      1.00000
      3      -5.6642      1.00000
      4      -4.4862      1.00000
      5      -4.4442      1.00000
      6      -3.9800      1.00000
      7      -3.5856      1.00000
      8      -3.1217      1.00000
      9      -2.6768      1.00000
     10      -2.4435      1.00000
     11      -2.2678      1.00000
     12      -2.2678      1.00000
     13      -1.8614      1.00000
     14      -1.8614      1.00000
     15      -1.7510      1.00000
     16      -1.5093      1.00000
     17      -1.3131      1.00000
     18      -1.3030      1.00000
     19      -1.3030      1.00000
     20      -1.2034      1.00000
     21      -1.1713      1.00000
     22      -1.0314      1.00000
     23      -0.8004      0.99999
     24      -0.7942      0.99999
     25      -0.7942      0.99999
     26      -0.6257      0.99933
     27      -0.5642      0.99796
     28      -0.5303      0.99678
     29      -0.5303      0.99678
     30       0.4898      0.00082
     31       1.8330      0.00000
     32       4.8317      0.00000
     33       5.9720      0.00000

 k-point   2 :       0.1111    0.0000    0.0000
  band No.  band energies     occupation 
      1      -8.1788      1.00000
      2      -6.9899      1.00000
      3      -5.4108      1.00000
      4      -4.2763      1.00000
      5      -4.2707      1.00000
      6      -3.8807      1.00000
      7      -3.5004      1.00000
      8      -3.0647      1.00000
      9      -2.6595      1.00000
     10      -2.3708      1.00000
     11      -2.2964      1.00000
     12      -2.2270      1.00000
     13      -2.1079      1.00000
     14      -1.8905      1.00000
     15      -1.8522      1.00000
     16      -1.5197      1.00000
     17      -1.4460      1.00000
     18      -1.4460      1.00000
     19      -1.2950      1.00000
     20      -1.2534      1.00000
     21      -1.1172      1.00000
     22      -1.0272      1.00000
     23      -1.0157      1.00000
     24      -0.9944      1.00000
     25      -0.7160      0.99992
     26      -0.7090      0.99990
     27      -0.5966      0.99882
     28      -0.5114      0.99608
     29      -0.4587      0.99512
     30       1.1102      0.00000
     31       2.5452      0.00000
     32       5.1263      0.00000
     33       6.3055      0.00000

 k-point   3 :       0.2222    0.0000    0.0000
  band No.  band energies     occupation 
      1      -7.2876      1.00000
      2      -6.1935      1.00000
      3      -4.8276      1.00000
      4      -3.8948      1.00000
      5      -3.8706      1.00000
      6      -3.5926      1.00000
      7      -3.1674      1.00000
[...]
      1      -4.4211      1.00000
      2      -3.6801      1.00000
      3      -3.4404      1.00000
      4      -3.1425      1.00000
      5      -3.0981      1.00000
      6      -3.0581      1.00000
      7      -2.8755      1.00000
      8      -2.7046      1.00000
      9      -2.4514      1.00000
     10      -2.1997      1.00000
     11      -2.1939      1.00000
     12      -1.7666      1.00000
     13      -1.6772      1.00000
     14      -0.7914      0.99999
     15      -0.7648      0.99998
     16      -0.7320      0.99995
     17      -0.6927      0.99985
     18      -0.6813      0.99981
     19      -0.5283      0.99669
     20      -0.3852      1.00408
     21      -0.3652      1.01026
     22      -0.2811      1.04682
     23      -0.2589      1.05150
     24      -0.0129      0.24572
     25       0.0454      0.03792
     26       0.2213     -0.01694
     27       1.2178      0.00000
     28       2.6783      0.00000
     29       4.5605      0.00000
     30       6.0347      0.00000
     31       6.6968      0.00000
     32       7.4541      0.00000
     33       8.6390      0.00000

 k-point  14 :       0.4444    0.3333    0.0000
  band No.  band energies     occupation 
      1      -4.0072      1.00000
      2      -3.7271      1.00000
      3      -3.4394      1.00000
      4      -3.2952      1.00000
      5      -3.2241      1.00000
      6      -3.0848      1.00000
      7      -3.0447      1.00000
      8      -2.7836      1.00000
      9      -2.6538      1.00000
     10      -2.3646      1.00000
     11      -1.9807      1.00000
     12      -1.4975      1.00000
     13      -1.3456      1.00000
     14      -0.7458      0.99996
     15      -0.7106      0.99991
     16      -0.5484      0.99743
     17      -0.5032      0.99577
     18      -0.4317      0.99635
     19      -0.4150      0.99816
     20      -0.2845      1.04566
     21      -0.1650      0.94320
     22      -0.0099      0.23215
     23       0.0240      0.09974
     24       0.1251     -0.05154
     25       0.2735     -0.00063
     26       1.5098      0.00000
     27       2.7626      0.00000
     28       3.8193      0.00000
     29       4.3840      0.00000
     30       5.0460      0.00000
     31       6.5708      0.00000
     32       7.0305      0.00000
     33       8.7778      0.00000

 k-point  15 :       0.4444    0.4444    0.0000
  band No.  band energies     occupation 
      1      -4.0570      1.00000
      2      -3.9562      1.00000
      3      -3.5722      1.00000
      4      -3.4106      1.00000
      5      -3.4025      1.00000
      6      -3.2059      1.00000
      7      -2.9811      1.00000
      8      -2.9227      1.00000
      9      -2.9028      1.00000
     10      -2.1529      1.00000
     11      -2.1110      1.00000
     12      -1.1441      1.00000
     13      -1.1000      1.00000
     14      -0.5816      0.99845
     15      -0.5168      0.99625
     16      -0.2377      1.04875
     17      -0.1682      0.95188
     18      -0.1199      0.78127
     19      -0.0960      0.66892
     20      -0.0127      0.24476
     21       0.0440      0.04156
     22       0.1440     -0.04975
     23       0.1894     -0.03171
     24       0.3992      0.00340
     25       0.4580      0.00147
     26       2.4916      0.00000
     27       3.7047      0.00000
     28       4.1748      0.00000
     29       5.4470      0.00000
     30       6.2097      0.00000
     31       7.7613      0.00000
     32       8.3657      0.00000
     33       9.5411      0.00000


--------------------------------------------------------------------------------------------------------


 soft charge-density along one line, spin component 1
         0         1         2         3         4         5         6         7         8         9
x    19.0454    0.6854   -0.7486   -0.0396    0.0558    0.0000
y    19.0454    0.6854   -0.7486   -0.0396    0.0558    0.0000
z    19.0454    3.7481   -0.2414    3.1307   -0.2011    1.7685    0.2234    0.6381    0.2194    0.1942
z     0.3123   -0.0605    0.0550   -0.2125    0.0333   -0.1594   -0.0668   -0.0567   -0.0559   -0.0622
z    -0.2619   -0.0516    0.0081   -0.0111   -0.0024    0.0039    0.0069    0.0046    0.0070    0.0123
z     0.0575    0.0167   -0.0042    0.0116   -0.0006    0.0021    0.0000
 total charge-density along one line
x    50.0000    5.5918   10.1833    0.4135   -0.0445   -0.0050    0.0167   -0.0016    0.0028   -0.0002
y    50.0000    5.5918   10.1833    0.4135   -0.0445   -0.0050    0.0167   -0.0016    0.0028   -0.0002
z    50.0000    9.9872   -0.4600    9.5362   -0.5601    7.2543    0.8101    4.6272    1.0242    3.9509
z    18.9043    3.8548   -0.7743    3.1637   -0.3801    1.5671    0.4446    0.6500    0.2808    0.6557
z     2.8118    0.5819   -0.1826    0.3142   -0.0444    0.0372    0.0187    0.0072   -0.0157    0.0036
z    -0.0137   -0.0093   -0.0001   -0.0017   -0.0026   -0.0036    0.0033    0.0006    0.0046    0.0081
z     0.0347    0.0114   -0.0042    0.0050   -0.0000    0.0002   -0.0014    0.0003   -0.0015   -0.0025
z    -0.0086   -0.0033    0.0011   -0.0008   -0.0002    0.0001    0.0009   -0.0004    0.0006    0.0011
z     0.0028    0.0012   -0.0001   -0.0001    0.0004   -0.0000   -0.0006    0.0003   -0.0002   -0.0007
z    -0.0016
 
 soft charge-density along one line, spin component 2
         0         1         2         3         4         5         6         7         8         9
x     0.1798    0.0853   -0.0446   -0.0018    0.0027    0.0000
y     0.1798    0.0853   -0.0446   -0.0018    0.0027    0.0000
z     0.1798    0.0339    0.0344    0.0660    0.0072    0.0731   -0.0050    0.0642    0.0061    0.0262
z     0.0905    0.0097   -0.0084   -0.0132    0.0025   -0.0189   -0.0028   -0.0159   -0.0062   -0.0148
z    -0.0757   -0.0160    0.0043   -0.0142    0.0033   -0.0002   -0.0007   -0.0019   -0.0010   -0.0009
z    -0.0036   -0.0005    0.0002   -0.0003    0.0002    0.0003    0.0000
 total charge-density along one line
x     3.0891    0.6314    0.9648    0.0486   -0.0246    0.0027    0.0014   -0.0003    0.0002   -0.0001
y     3.0891    0.6314    0.9648    0.0486   -0.0246    0.0027    0.0014   -0.0003    0.0002   -0.0001
z     3.0891    0.6104    0.0926    0.7329   -0.0082    0.6934    0.0772    0.4835    0.1615    0.3664
z     1.8405    0.3788   -0.0412    0.3528   -0.0293    0.1944    0.0627    0.0614    0.0624    0.0384
z     0.1538    0.0299    0.0063    0.0056    0.0091    0.0139   -0.0010   -0.0077   -0.0050   -0.0147
z    -0.0770   -0.0217    0.0095   -0.0206    0.0049    0.0016   -0.0033   -0.0014   -0.0021   -0.0015
z    -0.0045   -0.0007   -0.0000    0.0003   -0.0001   -0.0001    0.0003    0.0001    0.0002    0.0001
z     0.0001   -0.0001    0.0001   -0.0001    0.0000    0.0001   -0.0001   -0.0000   -0.0000    0.0000
z     0.0001    0.0001   -0.0000    0.0000   -0.0000   -0.0000    0.0000   -0.0000    0.0000   -0.0000
z    -0.0001
 
 pseudopotential strength for first ion, spin component: 1
 -8.631   0.000  -0.000  -0.000  -0.000   0.611  -0.000   0.000
  0.000  -8.564  -0.000   0.000   0.000  -0.000   0.582   0.000
 -0.000  -0.000  -8.442   0.000  -0.000   0.000   0.000   0.531
 -0.000   0.000   0.000  -8.564   0.000   0.000  -0.000  -0.000
 -0.000   0.000  -0.000   0.000  -8.598   0.000  -0.000   0.000
  0.611  -0.000   0.000   0.000   0.000   1.062   0.000  -0.000
 -0.000   0.582   0.000  -0.000  -0.000   0.000   1.074  -0.000
  0.000   0.000   0.531  -0.000   0.000  -0.000  -0.000   1.095
  0.000  -0.000  -0.000   0.582  -0.000  -0.000   0.000   0.000
  0.000  -0.000   0.000  -0.000   0.598  -0.000   0.000  -0.000
 -0.000   0.000  -0.018  -0.000  -0.000  -0.000   0.000   0.006
  0.000  -0.000   0.001   0.000   0.000  -0.000   0.000  -0.000
  0.000  -0.012  -0.000   0.000  -0.000  -0.000   0.007   0.000
  0.000   0.000  -0.013   0.000   0.000   0.000  -0.000   0.006
  0.000   0.000  -0.000  -0.012   0.000  -0.000   0.000   0.000
 -0.000   0.009   0.000  -0.000   0.000   0.000  -0.004  -0.000
 -0.000  -0.000   0.011  -0.000  -0.000   0.000   0.000  -0.005
 -0.000  -0.000   0.000   0.009  -0.000   0.000   0.000  -0.000
 pseudopotential strength for first ion, spin component: 2
 -8.037  -0.000  -0.000  -0.000   0.000   0.358   0.000   0.000
 -0.000  -7.941   0.000   0.000  -0.000   0.000   0.319  -0.000
 -0.000   0.000  -7.960   0.000  -0.000   0.000  -0.000   0.325
 -0.000   0.000   0.000  -7.941   0.000   0.000  -0.000  -0.000
  0.000  -0.000  -0.000   0.000  -8.016  -0.000   0.000   0.000
  0.358   0.000   0.000   0.000  -0.000   1.170  -0.000  -0.000
  0.000   0.319  -0.000  -0.000   0.000  -0.000   1.186   0.000
  0.000  -0.000   0.325  -0.000   0.000  -0.000   0.000   1.184
  0.000  -0.000  -0.000   0.319  -0.000  -0.000   0.000   0.000
 -0.000   0.000   0.000  -0.000   0.350   0.000  -0.000  -0.000
 -0.000  -0.000  -0.010  -0.000   0.000  -0.000  -0.000   0.004
  0.000   0.000   0.001   0.000  -0.000  -0.000  -0.000  -0.000
  0.000  -0.013  -0.000   0.000  -0.000  -0.000   0.007  -0.000
  0.000   0.000  -0.015   0.000  -0.000   0.000  -0.000   0.007
  0.000   0.000  -0.000  -0.013   0.000  -0.000   0.000   0.000
 -0.000   0.009   0.000  -0.000   0.000   0.000  -0.004  -0.000
 -0.000  -0.000   0.011  -0.000   0.000   0.000   0.000  -0.005
 -0.000  -0.000   0.000   0.009  -0.000   0.000   0.000  -0.000
 total augmentation occupancy for first ion, spin component: 1
  1.764   0.000   0.159  -0.000   0.026   0.092   0.000   0.067   0.000   0.001  -0.351   0.069  -0.000   0.004  -0.000  -0.000
  0.000   1.759   0.000   0.113   0.000   0.000   0.059  -0.000   0.111  -0.000   0.000   0.000   0.008   0.000  -0.005  -0.010
  0.159   0.000   1.843   0.000   0.029   0.064  -0.000  -0.010  -0.000  -0.042  -0.005   0.030   0.000   0.037   0.000   0.000
 -0.000   0.113   0.000   1.748   0.000   0.000   0.111  -0.000   0.001   0.000   0.000   0.000  -0.011  -0.000   0.022  -0.002
  0.026   0.000   0.029   0.000   1.763   0.001   0.000  -0.040   0.000   0.004   0.089  -0.037   0.000  -0.022   0.000   0.000
  0.092   0.000   0.064   0.000   0.001   0.071   0.000  -0.005   0.000  -0.006  -0.112   0.028   0.000  -0.025   0.000   0.000
  0.000   0.059  -0.000   0.111   0.000   0.000   0.057  -0.000   0.011  -0.000  -0.000  -0.000   0.061  -0.000   0.023  -0.005
  0.067  -0.000  -0.010  -0.000  -0.040  -0.005  -0.000   0.066   0.000  -0.005  -0.074   0.012  -0.000   0.042  -0.000  -0.000
  0.000   0.111  -0.000   0.001   0.000   0.000   0.011   0.000   0.062   0.000  -0.000   0.000   0.023  -0.000   0.049  -0.002
  0.001  -0.000  -0.042   0.000   0.004  -0.006  -0.000  -0.005   0.000   0.072   0.077  -0.014   0.000   0.005   0.000   0.000
 -0.351   0.000  -0.005   0.000   0.089  -0.112  -0.000  -0.074  -0.000   0.077   1.217  -0.291  -0.000   0.112  -0.000   0.000
  0.069   0.000   0.030   0.000  -0.037   0.028  -0.000   0.012   0.000  -0.014  -0.291   0.095  -0.000  -0.052   0.000   0.000
 -0.000   0.008   0.000  -0.011   0.000   0.000   0.061  -0.000   0.023   0.000  -0.000  -0.000   0.199  -0.000   0.082  -0.014
  0.004   0.000   0.037  -0.000  -0.022  -0.025  -0.000   0.042  -0.000   0.005   0.112  -0.052  -0.000   0.101  -0.000  -0.000
 -0.000  -0.005   0.000   0.022   0.000   0.000   0.023  -0.000   0.049   0.000  -0.000   0.000   0.082  -0.000   0.130  -0.005
 -0.000  -0.010   0.000  -0.002   0.000   0.000  -0.005  -0.000  -0.002   0.000   0.000   0.000  -0.014  -0.000  -0.005   0.001
  0.002   0.000  -0.012   0.000   0.000   0.002   0.000  -0.003  -0.000  -0.001  -0.018   0.007  -0.000  -0.008  -0.000   0.000
 -0.000  -0.002   0.000  -0.010   0.000   0.000  -0.002  -0.000  -0.003   0.000  -0.000  -0.000  -0.005  -0.000  -0.008   0.000
 total augmentation occupancy for first ion, spin component: 2
  0.122  -0.000  -0.053  -0.000  -0.010  -0.077   0.000   0.011   0.000   0.001   0.004  -0.004  -0.000   0.003  -0.000  -0.000
 -0.000   0.110   0.000  -0.099   0.000  -0.000  -0.065  -0.000   0.020  -0.000   0.000  -0.000  -0.007  -0.000   0.002  -0.000
 -0.053   0.000   0.054   0.000  -0.013   0.012  -0.000  -0.042  -0.000   0.004   0.019   0.001   0.000  -0.010   0.000   0.000
 -0.000  -0.099   0.000   0.191  -0.000  -0.000   0.020  -0.000  -0.082   0.000  -0.000  -0.000   0.008  -0.000  -0.001   0.000
 -0.010   0.000  -0.013  -0.000   0.122   0.002  -0.000   0.005  -0.000  -0.066  -0.027   0.001   0.000   0.007   0.000  -0.000
 -0.077  -0.000   0.012  -0.000   0.002   0.008   0.000  -0.006  -0.000  -0.001   0.011  -0.004   0.000  -0.001   0.000   0.000
  0.000  -0.065  -0.000   0.020  -0.000   0.000   0.003  -0.000  -0.011  -0.000  -0.000  -0.000   0.001  -0.000  -0.000   0.000
  0.011  -0.000  -0.042  -0.000   0.005  -0.006  -0.000   0.002   0.000   0.001  -0.004  -0.002  -0.000  -0.000  -0.000  -0.000
  0.000   0.020  -0.000  -0.082  -0.000  -0.000  -0.011   0.000   0.011   0.000  -0.000   0.000  -0.002  -0.000  -0.002   0.000
  0.001  -0.000   0.004   0.000  -0.066  -0.001  -0.000   0.001   0.000   0.006   0.004   0.003  -0.000  -0.001   0.000   0.000
  0.004   0.000   0.019  -0.000  -0.027   0.011  -0.000  -0.004  -0.000   0.004   0.005   0.030  -0.000  -0.003  -0.000  -0.000
 -0.004  -0.000   0.001  -0.000   0.001  -0.004  -0.000  -0.002   0.000   0.003   0.030  -0.014  -0.000   0.003   0.000   0.000
 -0.000  -0.007   0.000   0.008   0.000   0.000   0.001  -0.000  -0.002  -0.000  -0.000  -0.000  -0.007   0.000  -0.006   0.001
  0.003  -0.000  -0.010  -0.000   0.007  -0.001  -0.000  -0.000  -0.000  -0.001  -0.003   0.003   0.000  -0.006  -0.000  -0.000
 -0.000   0.002   0.000  -0.001   0.000   0.000  -0.000  -0.000  -0.002   0.000  -0.000   0.000  -0.006  -0.000  -0.009   0.001
 -0.000  -0.000   0.000   0.000  -0.000   0.000   0.000  -0.000   0.000   0.000  -0.000   0.000   0.001  -0.000   0.001  -0.000
 -0.000  -0.000  -0.000   0.000  -0.000  -0.000   0.000   0.000  -0.000   0.000   0.000  -0.001   0.000   0.001   0.000  -0.000
 -0.000   0.000   0.000  -0.000   0.000   0.000   0.000  -0.000   0.000   0.000  -0.000   0.000   0.001  -0.000   0.001  -0.000


------------------------ aborting loop because EDIFF is reached ----------------------------------------




--------------------------------------------------------------------------------------------------------


    CHARGE:  VPU time   12.14: CPU time   12.14
    FORLOC:  VPU time    0.08: CPU time    0.08
    FORNL :  VPU time   78.31: CPU time   78.31
    STRESS:  VPU time  262.02: CPU time   68.66
    FORCOR:  VPU time    7.76: CPU time    7.76
    FORHAR:  VPU time    0.30: CPU time    0.31
    MIXING:  VPU time    0.11: CPU time    0.11
 d Force = 0.3131957E-05[ 0.777E-06, 0.549E-05]  d Energy = 0.4673764E-05-0.154E-05
 d Force = 0.4336754E+01[ 0.434E+01, 0.434E+01]  d Ewald  = 0.4336754E+01-0.135E-07


--------------------------------------------------------------------------------------------------------



  FREE ENERGIE OF THE ION-ELECTRON SYSTEM (eV)
  ---------------------------------------------------
  free  energy   TOTEN  =       -25.574523 eV

  energy  without entropy=      -25.574790  energy(sigma->0) =      -25.574590
 

  FORCE on cell =-STRESS in cart. coord.  units (eV/reduce length):
  Direction    X        Y        Z        XY       YZ       ZX
  --------------------------------------------------------------------------------------
  Alpha Z    228.18    228.18    228.18
  Ewald    12495.49  12495.49 -15562.12     -0.00      0.00      0.00
  Hartree  13995.26  13995.26 -13208.46     -0.00     -0.00     -0.00
  E(xc)     -275.79   -275.79   -276.28      0.00      0.00     -0.00
  Local   -26926.00 -26926.00  28332.77     -0.00      0.00      0.00
  n-local   -167.65   -169.84   -170.10     -8.02      0.00     -0.00
  augment    259.19    259.19    261.31      0.00      0.00      0.00
  Kinetic    383.04    394.40    392.62      7.54     -0.00     -0.00
  -------------------------------------------------------------------------------------
  Total       -3.70     -3.70     -2.08      0.00      0.00      0.00
  in kB      -53.89    -53.89    -30.24      0.00      0.00      0.00
  external pressure =      -46.01 kB  Pullay stress =        0.00 kB


 VOLUME and BASIS-vectors are now :
 -----------------------------------------------------------------------------
  energy-cutoff  :      270.00
  volume of cell :      109.97
      direct lattice vectors                 reciprocal lattice vectors
     1.765000000  1.765000000  0.000000000     0.283286119  0.283286119  0.000000000
    -1.765000000  1.765000000  0.000000000    -0.283286119  0.283286119  0.000000000
     0.000000000  0.000000000 17.650000000     0.000000000  0.000000000  0.056657224

  length of vectors
     2.496086938  2.496086938 17.650000000     0.400627071  0.400627071  0.056657224


 FORCES acting on ions
    electron-ion (+dipol)            ewald-force                    non-local-force                 convergence-correction
 -----------------------------------------------------------------------------------------------
   0.172E-12 0.610E-14 0.286E+04   0.755E-14 -.843E-14 -.286E+04   0.436E-25 0.598E-25 -.258E+01   0.170E-13 0.176E-13 -.364E-01
   -.175E-12 -.143E-12 0.146E+04   0.809E-14 -.223E-13 -.146E+04   -.414E-24 0.414E-24 -.114E+00   0.477E-13 0.824E-13 -.658E-02
   -.142E-12 -.585E-13 0.118E+02   0.546E-14 -.428E-13 -.119E+02   -.124E-23 0.414E-24 0.552E-01   -.386E-13 0.142E-13 0.116E-01
   0.944E-05 0.944E-05 -.145E+04   0.205E-13 -.174E-13 0.145E+04   0.827E-24 0.827E-24 0.133E+00   -.293E-13 0.780E-13 0.386E-01
   -.479E-04 -.479E-04 -.289E+04   0.291E-14 -.206E-13 0.289E+04   0.414E-24 0.000E+00 0.234E+01   -.126E-13 0.921E-13 0.640E-01
 -----------------------------------------------------------------------------------------------
   -.384E-04 -.384E-04 0.992E-01   0.446E-13 -.112E-12 0.000E+00   -.370E-24 0.171E-23 -.166E+00   -.158E-13 0.284E-12 0.711E-01
 
 
 POSITION                                       TOTAL-FORCE (eV/Angst)
 -----------------------------------------------------------------------------------
      0.00000      0.00000      0.00000         0.000000      0.000000      0.398756
      0.00000      1.76500      1.76500         0.000000      0.000000     -0.393048
      0.00000      0.00000      3.53000         0.000000      0.000000     -0.006319
      0.00000      1.76500      5.30196         0.000000      0.000000     -0.000021
      0.00000      0.00000      6.98746         0.000000      0.000000      0.000632
 -----------------------------------------------------------------------------------
    total drift:                               -0.000038     -0.000038      0.004794


--------------------------------------------------------------------------------------------------------


 Quasi-Newton relaxation of ions (Broydens 2nd method)
  g(Force)  = 0.308E-07   g(Stress)= 0.000E+00

 retain information from N=  1 steps
 eigenvalues of (default step * inverse Hessian matrix)
  average eigenvalue of G=   2.3655
 eigenvalue spectrum of G is  2.3655


--------------------------------------------------------------------------------------------------------


  
 reached required accuracy - stopping structural energy minimisation
 writing wavefunctions
     LOOP+:  VPU time 1916.99: CPU time 1054.79
  
  
 General timing and accounting informations for this job:
 ========================================================
  
                  Total CPU time used (sec):    23440.265
                            User time (sec):    22294.831
                          System time (sec):     1145.434
                         Elapsed time (sec):    13274.922
  
                   Maximum memory used (kb):           0.
                   Average memory used (kb):           0.
  
                          Minor page faults:            0
                          Major page faults:            0
                 Voluntary context switches:     58634523
