<?xml version="1.0" encoding="ISO-8859-1"?>
<modeling>
 <generator>
  <i name="program" type="string">vasp</i>
  <i name="version" type="string">4.6.38 </i>
  <i name="subversion" type="string">12Jan11 complex  serial</i>
  <i name="platform" type="string">Sun</i>
  <i name="date" type="string">2020 01 31</i>
  <i name="time" type="string">16:02:02</i>
 </generator>
 <incar>
  <i type="string" name="SYSTEM"> clean Ni(100) surface</i>
  <i type="int" name="ISTART">     0</i>
  <i type="string" name="PREC">medium</i>
  <i type="string" name="ALGO"> Fast</i>
  <i type="int" name="ISPIN">     2</i>
  <i type="int" name="ICHARG">     2</i>
  <i name="EDIFF">      0.00000100</i>
  <i type="int" name="IBRION">     1</i>
  <i type="int" name="NSW">   100</i>
  <i name="ENCUT">    270.00000000</i>
  <i name="POTIM">      0.80000000</i>
  <v name="MAGMOM">      1.00000000      1.00000000      1.00000000      1.00000000      1.00000000</v>
  <i type="int" name="ISMEAR">     2</i>
  <i name="SIGMA">      0.20000000</i>
 </incar>
 <kpoints>
  <generation param="Monkhorst-Pack">
   <v type="int" name="divisions">       9       9       1</v>
   <v name="usershift">      0.00000000       0.00000000       0.00000000 </v>
   <v name="genvec1">      0.11111111       0.00000000       0.00000000 </v>
   <v name="genvec2">      0.00000000       0.11111111       0.00000000 </v>
   <v name="genvec3">      0.00000000       0.00000000       1.00000000 </v>
   <v name="shift">      0.00000000       0.00000000       0.00000000 </v>
  </generation>
  <varray name="kpointlist" >
   <v>       0.00000000       0.00000000       0.00000000 </v>
   <v>       0.11111111       0.00000000       0.00000000 </v>
   <v>       0.22222222       0.00000000       0.00000000 </v>
   <v>       0.33333333       0.00000000       0.00000000 </v>
   <v>       0.44444444       0.00000000       0.00000000 </v>
   <v>       0.11111111       0.11111111       0.00000000 </v>
   <v>       0.22222222       0.11111111       0.00000000 </v>
   <v>       0.33333333       0.11111111       0.00000000 </v>
   <v>       0.44444444       0.11111111       0.00000000 </v>
   <v>       0.22222222       0.22222222       0.00000000 </v>
   <v>       0.33333333       0.22222222       0.00000000 </v>
   <v>       0.44444444       0.22222222       0.00000000 </v>
   <v>       0.33333333       0.33333333       0.00000000 </v>
   <v>       0.44444444       0.33333333       0.00000000 </v>
   <v>       0.44444444       0.44444444       0.00000000 </v>
  </varray>
  <varray name="weights" >
   <v>       0.01234568 </v>
   <v>       0.04938272 </v>
   <v>       0.04938272 </v>
   <v>       0.04938272 </v>
   <v>       0.04938272 </v>
   <v>       0.04938272 </v>
   <v>       0.09876543 </v>
   <v>       0.09876543 </v>
   <v>       0.09876543 </v>
   <v>       0.04938272 </v>
   <v>       0.09876543 </v>
   <v>       0.09876543 </v>
   <v>       0.04938272 </v>
   <v>       0.09876543 </v>
   <v>       0.04938272 </v>
  </varray>
 </kpoints>
 <parameters>
  <separator name="general" >
   <i type="string" name="SYSTEM">clean Ni(100) surface</i>
   <i type="logical" name="LCOMPAT"> F</i>
  </separator>
  <separator name="electronic" >
   <i type="string" name="PREC">medium</i>
   <i name="ENMAX">    270.00000000</i>
   <i name="ENAUG">    544.56500000</i>
   <i name="EDIFF">      0.00000100</i>
   <i type="int" name="IALGO">    68</i>
   <i type="int" name="IWAVPR">    11</i>
   <i type="int" name="NBANDS">    33</i>
   <i name="NELECT">     50.00000000</i>
   <separator name="electronic smearing" >
    <i type="int" name="ISMEAR">     2</i>
    <i name="SIGMA">      0.20000000</i>
   </separator>
   <separator name="electronic projectors" >
    <i type="logical" name="LREAL"> F</i>
    <v name="ROPT">      0.00000000</v>
    <i type="int" name="LMAXPAW">  -100</i>
    <i type="int" name="LMAXMIX">     2</i>
   </separator>
   <separator name="electronic startup" >
    <i type="int" name="ISTART">     0</i>
    <i type="int" name="ICHARG">     2</i>
    <i type="int" name="INIWAV">     1</i>
   </separator>
   <separator name="electronic spin" >
    <i type="int" name="ISPIN">     2</i>
    <i type="logical" name="LNONCOLLINEAR"> F</i>
    <v name="MAGMOM">      1.00000000      1.00000000      1.00000000      1.00000000      1.00000000</v>
    <i name="NUPDOWN">     -1.00000000</i>
    <i type="logical" name="LSORBIT"> F</i>
    <v name="SAXIS">      0.00000000      0.00000000      1.00000000</v>
    <i type="logical" name="LSPIRAL"> F</i>
    <v name="QSPIRAL">      0.00000000      0.00000000      0.00000000</v>
    <i type="logical" name="LZEROZ"> F</i>
   </separator>
   <separator name="electronic exchange-correlation" >
    <i type="string" name="GGA">--</i>
    <i type="int" name="VOSKOWN">     0</i>
    <i type="logical" name="LASPH"> F</i>
    <i type="logical" name="LMETAGGA"> F</i>
    <i type="string" name="GGA2">--</i>
   </separator>
   <separator name="electronic convergence" >
    <i type="int" name="NELM">    60</i>
    <i type="int" name="NELMDL">    -5</i>
    <i type="int" name="NELMIN">     2</i>
    <i name="ENINI">    270.00000000</i>
    <separator name="electronic convergence detail" >
     <i type="logical" name="LDIAG"> T</i>
     <i name="WEIMIN">      0.00100000</i>
     <i name="EBREAK">      0.00000001</i>
     <i name="DEPER">      0.30000000</i>
     <i type="int" name="NRMM">     4</i>
     <i name="TIME">      0.10000000</i>
    </separator>
   </separator>
   <separator name="electronic mixer" >
    <i name="AMIX">      0.40000000</i>
    <i name="BMIX">      1.00000000</i>
    <i name="AMIN">      0.10000000</i>
    <i name="AMIX_MAG">      1.60000000</i>
    <i name="BMIX_MAG">      1.00000000</i>
    <separator name="electronic mixer details" >
     <i type="int" name="IMIX">     4</i>
     <i type="int" name="MAXMIX">   -45</i>
     <i name="WC">    100.00000000</i>
     <i type="int" name="INIMIX">     1</i>
     <i type="int" name="MIXPRE">     1</i>
     <i type="int" name="MREMOVE">     5</i>
    </separator>
   </separator>
   <separator name="electronic dipolcorrection" >
    <i type="int" name="IDIPOL">     0</i>
    <i type="logical" name="LDIPOL"> F</i>
    <v name="DIPOL">   -100.00000000</v>
    <i name="EFIELD">      0.00000000</i>
   </separator>
  </separator>
  <separator name="grids" >
   <i type="int" name="NGX">    10</i>
   <i type="int" name="NGY">    10</i>
   <i type="int" name="NGZ">    72</i>
   <i type="int" name="NGXF">    18</i>
   <i type="int" name="NGYF">    18</i>
   <i type="int" name="NGZF">   140</i>
   <i type="logical" name="ADDGRID"> F</i>
  </separator>
  <separator name="ionic" >
   <i type="int" name="NSW">   100</i>
   <i type="int" name="IBRION">     1</i>
   <i type="int" name="ISIF">     2</i>
   <i name="PSTRESS">      0.00000000</i>
   <i name="EDIFFG">      0.00001000</i>
   <i type="int" name="NFREE">     0</i>
   <i name="POTIM">      0.80000000</i>
   <i name="SMASS">     -3.00000000</i>
  </separator>
  <separator name="ionic md" >
   <i name="TEBEG">      0.00010000</i>
   <i name="TEEND">      0.00010000</i>
   <i type="int" name="NBLOCK">     1</i>
   <i type="int" name="KBLOCK">   100</i>
   <i type="int" name="NPACO">   256</i>
   <i name="APACO">     16.00000000</i>
  </separator>
  <separator name="symmetry" >
   <i type="int" name="ISYM">     2</i>
   <i name="SYMPREC">      0.00001000</i>
  </separator>
  <separator name="dos" >
   <i type="logical" name="LORBIT"> F</i>
   <v name="RWIGS">     -1.00000000</v>
   <i type="int" name="NEDOS">   301</i>
   <i name="EMIN">     10.00000000</i>
   <i name="EMAX">    -10.00000000</i>
  </separator>
  <separator name="writing" >
   <i type="int" name="NWRITE">     2</i>
   <i type="logical" name="LWAVE"> T</i>
   <i type="logical" name="LCHARG"> T</i>
   <i type="logical" name="LPARD"> F</i>
   <i type="logical" name="LVTOT"> F</i>
   <i type="logical" name="LELF"> F</i>
   <i type="logical" name="LOPTICS"> F</i>
   <v name="STM">      0.00000000      0.00000000      0.00000000      0.00000000      0.00000000</v>
  </separator>
  <separator name="performance" >
   <i type="int" name="NPAR">     1</i>
   <i type="int" name="NSIM">     4</i>
   <i type="int" name="NBLK">    96</i>
   <i type="logical" name="LPLANE"> T</i>
   <i type="logical" name="LCRITICAL_MEM"> F</i>
   <i type="logical" name="LSCALAPACK"> F</i>
   <i type="logical" name="LSCALU"> F</i>
   <i type="logical" name="LASYNC"> F</i>
  </separator>
  <separator name="miscellaneous" >
   <i type="int" name="IDIOT">     3</i>
   <i type="logical" name="LMUSIC"> F</i>
   <v name="POMASS">     58.69000000</v>
   <i type="logical" name="LCORR"> T</i>
  </separator>
  <i type="logical" name="LREAL_COMPAT"> F</i>
  <i type="logical" name="GGA_COMPAT"> T</i>
  <i type="logical" name="LBERRY"> F</i>
  <i type="int" name="ICORELEVEL">     0</i>
  <i type="logical" name="LDAU"> F</i>
  <i type="int" name="I_CONSTRAINED_M">     0</i>
 </parameters>
 <atominfo>
  <atoms>       5</atoms>
  <types>       1</types>
  <array name="atoms" >
   <dimension dim="1">ion</dimension>
   <field type="string">element</field>
   <field type="int">atomtype</field>
   <set>
    <rc><c>Ni</c><c>   1</c></rc>
    <rc><c>Ni</c><c>   1</c></rc>
    <rc><c>Ni</c><c>   1</c></rc>
    <rc><c>Ni</c><c>   1</c></rc>
    <rc><c>Ni</c><c>   1</c></rc>
   </set>
  </array>
  <array name="atomtypes" >
   <dimension dim="1">type</dimension>
   <field type="int">atomspertype</field>
   <field type="string">element</field>
   <field>mass</field>
   <field>valence</field>
   <field type="string">pseudopotential</field>
   <set>
    <rc><c>   5</c><c>Ni</c><c>     58.69000000</c><c>     10.00000000</c><c>  PAW Ni                                </c></rc>
   </set>
  </array>
 </atominfo>
 <structure name="initialpos" >
  <crystal>
   <varray name="basis" >
    <v>       1.76500000       1.76500000       0.00000000 </v>
    <v>      -1.76500000       1.76500000       0.00000000 </v>
    <v>       0.00000000       0.00000000      17.65000000 </v>
   </varray>
   <i name="volume">    109.96744250</i>
   <varray name="rec_basis" >
    <v>       0.28328612       0.28328612       0.00000000 </v>
    <v>      -0.28328612       0.28328612       0.00000000 </v>
    <v>       0.00000000       0.00000000       0.05665722 </v>
   </varray>
  </crystal>
  <varray name="positions" >
   <v>       0.00000000       0.00000000       0.00000000 </v>
   <v>       0.50000000       0.50000000       0.10000000 </v>
   <v>       0.00000000       0.00000000       0.20000000 </v>
   <v>       0.50000000       0.50000000       0.30000000 </v>
   <v>       0.00000000       0.00000000       0.40000000 </v>
  </varray>
  <varray name="selective"  type="logical" >
   <v type="logical" >  F F F</v>
   <v type="logical" >  F F F</v>
   <v type="logical" >  F F F</v>
   <v type="logical" >  T T T</v>
   <v type="logical" >  T T T</v>
  </varray>
  <nose>
   <v>      -3.00000000       0.00000000       0.00010000       0.00010000 </v>
  </nose>
 </structure>
 <calculation>
  <scstep>
   <time name="dav">  231.94  109.86</time>
   <time name="total">  242.29  120.19</time>
   <energy>
    <i name="alphaZ">    228.18410549</i>
    <i name="ewald">   9231.00278662</i>
    <i name="hartreedc"> -14629.34389242</i>
    <i name="XCdc">    156.29197857</i>
    <i name="pawpsdc">   4356.65054997</i>
    <i name="pawaedc">  -4692.71830440</i>
    <i name="eentropy">     -0.00130815</i>
    <i name="bandstr">    213.60678630</i>
    <i name="atom">   5397.15695484</i>
    <i name="e_fr_energy">    260.82965682</i>
    <i name="e_wo_entrp">    260.83096497</i>
    <i name="e_0_energy">    260.82998386</i>
   </energy>
  </scstep>
  <scstep>
   <time name="dav">  232.46  110.29</time>
   <time name="total">  233.41  111.24</time>
   <energy>
    <i name="e_fr_energy">    -14.78298917</i>
    <i name="e_wo_entrp">    -14.77467375</i>
    <i name="e_0_energy">    -14.78091031</i>
   </energy>
  </scstep>
  <scstep>
   <time name="dav">  248.63  117.23</time>
   <time name="total">  249.77  118.37</time>
   <energy>
    <i name="e_fr_energy">    -29.88355392</i>
    <i name="e_wo_entrp">    -29.88595423</i>
    <i name="e_0_energy">    -29.88415400</i>
   </energy>
  </scstep>
  <scstep>
   <time name="dav">  239.43  112.95</time>
   <time name="total">  240.57  114.09</time>
   <energy>
    <i name="e_fr_energy">    -30.01354333</i>
    <i name="e_wo_entrp">    -30.01611921</i>
    <i name="e_0_energy">    -30.01418730</i>
   </energy>
  </scstep>
  <scstep>
   <time name="dav">  258.76  121.28</time>
   <time name="total">  271.15  133.66</time>
   <energy>
    <i name="e_fr_energy">    -30.01440158</i>
    <i name="e_wo_entrp">    -30.01697809</i>
    <i name="e_0_energy">    -30.01504570</i>
   </energy>
  </scstep>
  <scstep>
   <time name="diag">   23.34   20.12</time>
   <time name="diis">  189.62   93.19</time>
   <time name="orth">    4.22    1.42</time>
   <time name="total">  238.67  136.22</time>
   <energy>
    <i name="e_fr_energy">    -31.58651153</i>
    <i name="e_wo_entrp">    -31.57597109</i>
    <i name="e_0_energy">    -31.58387642</i>
   </energy>
  </scstep>
  <scstep>
   <time name="diag">   23.37   20.13</time>
   <time name="diis">  189.30   93.09</time>
   <time name="orth">    4.57    1.41</time>
   <time name="total">  238.84  136.22</time>
   <energy>
    <i name="e_fr_energy">    -32.20464837</i>
    <i name="e_wo_entrp">    -32.20255941</i>
    <i name="e_0_energy">    -32.20412613</i>
   </energy>
  </scstep>
  <scstep>
   <time name="diag">   23.37   20.13</time>
   <time name="diis">  189.42   93.12</time>
   <time name="orth">    4.65    1.41</time>
   <time name="total">  239.53  136.75</time>
   <energy>
    <i name="e_fr_energy">    -29.58473111</i>
    <i name="e_wo_entrp">    -29.59442522</i>
    <i name="e_0_energy">    -29.58715464</i>
   </energy>
  </scstep>
  <scstep>
   <time name="diag">   23.37   20.13</time>
   <time name="diis">  189.70   93.23</time>
   <time name="orth">    4.18    1.42</time>
   <time name="total">  238.47  135.98</time>
   <energy>
    <i name="e_fr_energy">    -25.75206039</i>
    <i name="e_wo_entrp">    -25.75644672</i>
    <i name="e_0_energy">    -25.75315697</i>
   </energy>
  </scstep>
  <scstep>
   <time name="diag">   23.37   20.13</time>
   <time name="diis">  189.92   93.34</time>
   <time name="orth">    4.02    1.42</time>
   <time name="total">  238.65  136.22</time>
   <energy>
    <i name="e_fr_energy">    -25.54089051</i>
    <i name="e_wo_entrp">    -25.54081380</i>
    <i name="e_0_energy">    -25.54087133</i>
   </energy>
  </scstep>
  <scstep>
   <time name="diag">   23.36   20.13</time>
   <time name="diis">  190.02   93.39</time>
   <time name="orth">    4.14    1.41</time>
   <time name="total">  239.28  136.68</time>
   <energy>
    <i name="e_fr_energy">    -25.82384433</i>
    <i name="e_wo_entrp">    -25.82439745</i>
    <i name="e_0_energy">    -25.82398261</i>
   </energy>
  </scstep>
  <scstep>
   <time name="diag">   23.38   20.13</time>
   <time name="diis">  189.88   93.32</time>
   <time name="orth">    4.00    1.41</time>
   <time name="total">  238.85  136.44</time>
   <energy>
    <i name="e_fr_energy">    -25.50047429</i>
    <i name="e_wo_entrp">    -25.50269190</i>
    <i name="e_0_energy">    -25.50102869</i>
   </energy>
  </scstep>
  <scstep>
   <time name="diag">   23.38   20.13</time>
   <time name="diis">  189.90   93.34</time>
   <time name="orth">    4.60    1.42</time>
   <time name="total">  239.44  136.45</time>
   <energy>
    <i name="e_fr_energy">    -25.50127572</i>
    <i name="e_wo_entrp">    -25.50583415</i>
    <i name="e_0_energy">    -25.50241533</i>
   </energy>
  </scstep>
  <scstep>
   <time name="diag">   23.34   20.12</time>
   <time name="diis">  189.94   93.43</time>
   <time name="orth">    4.32    1.42</time>
   <time name="total">  239.11  136.47</time>
   <energy>
    <i name="e_fr_energy">    -25.51445521</i>
    <i name="e_wo_entrp">    -25.51819357</i>
    <i name="e_0_energy">    -25.51538980</i>
   </energy>
  </scstep>
  <scstep>
   <time name="diag">   23.38   20.13</time>
   <time name="diis">  189.68   93.23</time>
   <time name="orth">    4.20    1.41</time>
   <time name="total">  238.93  136.44</time>
   <energy>
    <i name="e_fr_energy">    -25.54178622</i>
    <i name="e_wo_entrp">    -25.54252650</i>
    <i name="e_0_energy">    -25.54197129</i>
   </energy>
  </scstep>
  <scstep>
   <time name="diag">   23.36   20.13</time>
   <time name="diis">  189.26   93.09</time>
   <time name="orth">    4.31    1.41</time>
   <time name="total">  239.05  136.75</time>
   <energy>
    <i name="e_fr_energy">    -25.54278590</i>
    <i name="e_wo_entrp">    -25.54225240</i>
    <i name="e_0_energy">    -25.54265253</i>
   </energy>
  </scstep>
  <scstep>
   <time name="diag">   23.35   20.12</time>
   <time name="diis">  189.76   93.26</time>
   <time name="orth">    5.05    1.41</time>
   <time name="total">  239.82  136.45</time>
   <energy>
    <i name="e_fr_energy">    -25.55310583</i>
    <i name="e_wo_entrp">    -25.55347955</i>
    <i name="e_0_energy">    -25.55319926</i>
   </energy>
  </scstep>
  <scstep>
   <time name="diag">   23.37   20.13</time>
   <time name="diis">  188.41   92.66</time>
   <time name="orth">    3.99    1.41</time>
   <time name="total">  237.27  135.71</time>
   <energy>
    <i name="e_fr_energy">    -25.55385701</i>
    <i name="e_wo_entrp">    -25.55519218</i>
    <i name="e_0_energy">    -25.55419080</i>
   </energy>
  </scstep>
  <scstep>
   <time name="diag">   23.37   20.13</time>
   <time name="diis">  188.32   92.65</time>
   <time name="orth">    3.97    1.41</time>
   <time name="total">  237.60  136.12</time>
   <energy>
    <i name="e_fr_energy">    -25.55331574</i>
    <i name="e_wo_entrp">    -25.55478504</i>
    <i name="e_0_energy">    -25.55368306</i>
   </energy>
  </scstep>
  <scstep>
   <time name="diag">   23.35   20.13</time>
   <time name="diis">  189.43   93.09</time>
   <time name="orth">    4.59    1.43</time>
   <time name="total">  239.18  136.44</time>
   <energy>
    <i name="e_fr_energy">    -25.55287625</i>
    <i name="e_wo_entrp">    -25.55393038</i>
    <i name="e_0_energy">    -25.55313978</i>
   </energy>
  </scstep>
  <scstep>
   <time name="diag">   23.37   20.14</time>
   <time name="diis">  189.41   93.09</time>
   <time name="orth">    4.35    1.41</time>
   <time name="total">  238.96  136.47</time>
   <energy>
    <i name="e_fr_energy">    -25.55334382</i>
    <i name="e_wo_entrp">    -25.55397881</i>
    <i name="e_0_energy">    -25.55350257</i>
   </energy>
  </scstep>
  <scstep>
   <time name="diag">   23.37   20.13</time>
   <time name="diis">  188.52   92.69</time>
   <time name="orth">    4.11    1.42</time>
   <time name="total">  238.11  136.33</time>
   <energy>
    <i name="e_fr_energy">    -25.55493018</i>
    <i name="e_wo_entrp">    -25.55569494</i>
    <i name="e_0_energy">    -25.55512137</i>
   </energy>
  </scstep>
  <scstep>
   <time name="diag">   23.36   20.13</time>
   <time name="diis">  159.22   80.04</time>
   <time name="orth">    3.97    1.41</time>
   <time name="total">  208.39  123.41</time>
   <energy>
    <i name="e_fr_energy">    -25.55589424</i>
    <i name="e_wo_entrp">    -25.55665632</i>
    <i name="e_0_energy">    -25.55608476</i>
   </energy>
  </scstep>
  <scstep>
   <time name="diag">   23.34   20.12</time>
   <time name="diis">  151.20   76.57</time>
   <time name="orth">    3.98    1.41</time>
   <time name="total">  200.23  119.80</time>
   <energy>
    <i name="e_fr_energy">    -25.55657144</i>
    <i name="e_wo_entrp">    -25.55735931</i>
    <i name="e_0_energy">    -25.55676840</i>
   </energy>
  </scstep>
  <scstep>
   <time name="diag">   23.35   20.13</time>
   <time name="diis">  150.60   76.24</time>
   <time name="orth">    4.18    1.41</time>
   <time name="total">  200.06  119.70</time>
   <energy>
    <i name="e_fr_energy">    -25.55701252</i>
    <i name="e_wo_entrp">    -25.55779632</i>
    <i name="e_0_energy">    -25.55720847</i>
   </energy>
  </scstep>
  <scstep>
   <time name="diag">   23.36   20.13</time>
   <time name="diis">  136.53   70.21</time>
   <time name="orth">    4.05    1.41</time>
   <time name="total">  185.83  113.63</time>
   <energy>
    <i name="e_fr_energy">    -25.55714949</i>
    <i name="e_wo_entrp">    -25.55794429</i>
    <i name="e_0_energy">    -25.55734819</i>
   </energy>
  </scstep>
  <scstep>
   <time name="diag">   23.35   20.13</time>
   <time name="diis">  129.96   67.32</time>
   <time name="orth">    3.96    1.41</time>
   <time name="total">  178.94  110.52</time>
   <energy>
    <i name="e_fr_energy">    -25.55719857</i>
    <i name="e_wo_entrp">    -25.55799597</i>
    <i name="e_0_energy">    -25.55739792</i>
   </energy>
  </scstep>
  <scstep>
   <time name="diag">   23.36   20.13</time>
   <time name="diis">  118.10   62.17</time>
   <time name="orth">    4.35    1.42</time>
   <time name="total">  167.70  105.60</time>
   <energy>
    <i name="e_fr_energy">    -25.55721141</i>
    <i name="e_wo_entrp">    -25.55801019</i>
    <i name="e_0_energy">    -25.55741111</i>
   </energy>
  </scstep>
  <scstep>
   <time name="diag">   23.34   20.13</time>
   <time name="diis">  110.18   58.43</time>
   <time name="orth">    4.05    1.41</time>
   <time name="total">  159.53  101.91</time>
   <energy>
    <i name="e_fr_energy">    -25.55721653</i>
    <i name="e_wo_entrp">    -25.55801851</i>
    <i name="e_0_energy">    -25.55741702</i>
   </energy>
  </scstep>
  <scstep>
   <time name="diag">   23.35   20.13</time>
   <time name="diis">   94.01   50.16</time>
   <time name="orth">    3.99    1.41</time>
   <time name="total">  143.33   93.67</time>
   <energy>
    <i name="e_fr_energy">    -25.55721840</i>
    <i name="e_wo_entrp">    -25.55801970</i>
    <i name="e_0_energy">    -25.55741873</i>
   </energy>
  </scstep>
  <scstep>
   <time name="diag">   23.37   20.13</time>
   <time name="diis">   85.76   45.90</time>
   <time name="orth">    4.31    1.41</time>
   <time name="total">  123.75   77.74</time>
   <energy>
    <i name="alphaZ">    228.18410549</i>
    <i name="ewald">   9231.00278662</i>
    <i name="hartreedc"> -14585.43973957</i>
    <i name="XCdc">    151.60024340</i>
    <i name="pawpsdc">   4535.35397473</i>
    <i name="pawaedc">  -4877.77899468</i>
    <i name="eentropy">      0.00080067</i>
    <i name="bandstr">   -105.63735044</i>
    <i name="atom">   5397.15695484</i>
    <i name="e_fr_energy">    -25.55721895</i>
    <i name="e_wo_entrp">    -25.55801961</i>
    <i name="e_0_energy">    -25.55741911</i>
   </energy>
  </scstep>
  <structure>
   <crystal>
    <varray name="basis" >
     <v>       1.76500000       1.76500000       0.00000000 </v>
     <v>      -1.76500000       1.76500000       0.00000000 </v>
     <v>       0.00000000       0.00000000      17.65000000 </v>
    </varray>
    <i name="volume">    109.96744250</i>
    <varray name="rec_basis" >
     <v>       0.28328612       0.28328612       0.00000000 </v>
     <v>      -0.28328612       0.28328612       0.00000000 </v>
     <v>       0.00000000       0.00000000       0.05665722 </v>
    </varray>
   </crystal>
   <varray name="positions" >
    <v>       0.00000000       0.00000000       0.00000000 </v>
    <v>       0.50000000       0.50000000       0.10000000 </v>
    <v>       0.00000000       0.00000000       0.20000000 </v>
    <v>       0.50000000       0.50000000       0.30000000 </v>
    <v>       0.00000000       0.00000000       0.40000000 </v>
   </varray>
  </structure>
  <varray name="forces" >
   <v>       0.00000000       0.00000000       0.39696399 </v>
   <v>       0.00000000       0.00000000      -0.39007579 </v>
   <v>      -0.00000000       0.00000000      -0.00190780 </v>
   <v>       0.00000000       0.00000000       0.39075153 </v>
   <v>       0.00000000       0.00000000      -0.39573193 </v>
  </varray>
  <varray name="stress" >
   <v>     -60.66458626       0.00000000       0.00000000 </v>
   <v>       0.00000000     -60.66458626       0.00000000 </v>
   <v>       0.00000000       0.00000000     -40.26229425 </v>
  </varray>
  <energy>
   <i name="e_fr_energy">    -25.55721895</i>
   <i name="e_wo_entrp">    -25.55741911</i>
   <i name="e_0_energy">      0.00080067</i>
  </energy>
 </calculation>
 <calculation>
  <scstep>
   <time name="dav">  233.12  110.26</time>
   <time name="total">  254.70  131.83</time>
   <energy>
    <i name="alphaZ">    228.18410549</i>
    <i name="ewald">   9274.61733154</i>
    <i name="hartreedc"> -14628.63168782</i>
    <i name="XCdc">    151.65823066</i>
    <i name="pawpsdc">   4535.35305930</i>
    <i name="pawaedc">  -4877.77842329</i>
    <i name="eentropy">      0.00073805</i>
    <i name="bandstr">   -106.12727543</i>
    <i name="atom">   5397.15695484</i>
    <i name="e_fr_energy">    -25.56696666</i>
    <i name="e_wo_entrp">    -25.56770471</i>
    <i name="e_0_energy">    -25.56715117</i>
   </energy>
  </scstep>
  <scstep>
   <time name="diag">   23.36   20.13</time>
   <time name="diis">  189.43   93.13</time>
   <time name="orth">    4.17    1.41</time>
   <time name="total">  238.36  136.07</time>
   <energy>
    <i name="e_fr_energy">    -25.57866106</i>
    <i name="e_wo_entrp">    -25.57922297</i>
    <i name="e_0_energy">    -25.57880153</i>
   </energy>
  </scstep>
  <scstep>
   <time name="diag">   23.39   20.15</time>
   <time name="diis">  189.72   93.24</time>
   <time name="orth">    4.65    1.43</time>
   <time name="total">  239.16  136.21</time>
   <energy>
    <i name="e_fr_energy">    -25.59032326</i>
    <i name="e_wo_entrp">    -25.58714135</i>
    <i name="e_0_energy">    -25.58952779</i>
   </energy>
  </scstep>
  <scstep>
   <time name="diag">   23.35   20.13</time>
   <time name="diis">  189.92   93.34</time>
   <time name="orth">    4.16    1.41</time>
   <time name="total">  238.84  136.30</time>
   <energy>
    <i name="e_fr_energy">    -25.57972199</i>
    <i name="e_wo_entrp">    -25.58007008</i>
    <i name="e_0_energy">    -25.57980901</i>
   </energy>
  </scstep>
  <scstep>
   <time name="diag">   23.35   20.13</time>
   <time name="diis">  190.12   93.40</time>
   <time name="orth">    4.30    1.42</time>
   <time name="total">  239.37  136.55</time>
   <energy>
    <i name="e_fr_energy">    -25.57288889</i>
    <i name="e_wo_entrp">    -25.57283555</i>
    <i name="e_0_energy">    -25.57287555</i>
   </energy>
  </scstep>
  <scstep>
   <time name="diag">   23.35   20.13</time>
   <time name="diis">  189.80   93.28</time>
   <time name="orth">    4.13    1.41</time>
   <time name="total">  238.94  136.47</time>
   <energy>
    <i name="e_fr_energy">    -25.57241196</i>
    <i name="e_wo_entrp">    -25.57382126</i>
    <i name="e_0_energy">    -25.57276429</i>
   </energy>
  </scstep>
  <scstep>
   <time name="diag">   23.35   20.13</time>
   <time name="diis">  189.81   93.34</time>
   <time name="orth">    4.02    1.41</time>
   <time name="total">  238.86  136.54</time>
   <energy>
    <i name="e_fr_energy">    -25.57246343</i>
    <i name="e_wo_entrp">    -25.57327718</i>
    <i name="e_0_energy">    -25.57266687</i>
   </energy>
  </scstep>
  <scstep>
   <time name="diag">   23.38   20.13</time>
   <time name="diis">  189.98   93.35</time>
   <time name="orth">    4.09    1.41</time>
   <time name="total">  239.11  136.55</time>
   <energy>
    <i name="e_fr_energy">    -25.57152092</i>
    <i name="e_wo_entrp">    -25.57245612</i>
    <i name="e_0_energy">    -25.57175472</i>
   </energy>
  </scstep>
  <scstep>
   <time name="diag">   23.34   20.13</time>
   <time name="diis">  188.87   92.90</time>
   <time name="orth">    4.46    1.42</time>
   <time name="total">  238.12  135.89</time>
   <energy>
    <i name="e_fr_energy">    -25.57157227</i>
    <i name="e_wo_entrp">    -25.57241162</i>
    <i name="e_0_energy">    -25.57178211</i>
   </energy>
  </scstep>
  <scstep>
   <time name="diag">   23.36   20.13</time>
   <time name="diis">  183.51   90.58</time>
   <time name="orth">    3.99    1.41</time>
   <time name="total">  232.31  133.57</time>
   <energy>
    <i name="e_fr_energy">    -25.57159738</i>
    <i name="e_wo_entrp">    -25.57245692</i>
    <i name="e_0_energy">    -25.57181227</i>
   </energy>
  </scstep>
  <scstep>
   <time name="diag">   23.38   20.13</time>
   <time name="diis">  113.08   60.00</time>
   <time name="orth">    4.42    1.41</time>
   <time name="total">  162.35  103.00</time>
   <energy>
    <i name="e_fr_energy">    -25.57161486</i>
    <i name="e_wo_entrp">    -25.57247487</i>
    <i name="e_0_energy">    -25.57182986</i>
   </energy>
  </scstep>
  <scstep>
   <time name="diag">   23.37   20.13</time>
   <time name="diis">  112.35   59.68</time>
   <time name="orth">    4.26    1.42</time>
   <time name="total">  161.45  102.70</time>
   <energy>
    <i name="e_fr_energy">    -25.57162996</i>
    <i name="e_wo_entrp">    -25.57249267</i>
    <i name="e_0_energy">    -25.57184563</i>
   </energy>
  </scstep>
  <scstep>
   <time name="diag">   23.35   20.13</time>
   <time name="diis">  108.30   57.76</time>
   <time name="orth">    4.57    1.42</time>
   <time name="total">  157.93  100.99</time>
   <energy>
    <i name="e_fr_energy">    -25.57163669</i>
    <i name="e_wo_entrp">    -25.57250080</i>
    <i name="e_0_energy">    -25.57185271</i>
   </energy>
  </scstep>
  <scstep>
   <time name="diag">   23.37   20.13</time>
   <time name="diis">  111.33   59.11</time>
   <time name="orth">    4.02    1.41</time>
   <time name="total">  160.45  102.37</time>
   <energy>
    <i name="e_fr_energy">    -25.57164315</i>
    <i name="e_wo_entrp">    -25.57250970</i>
    <i name="e_0_energy">    -25.57185978</i>
   </energy>
  </scstep>
  <scstep>
   <time name="diag">   23.38   20.13</time>
   <time name="diis">  100.19   53.52</time>
   <time name="orth">    4.12    1.41</time>
   <time name="total">  149.44   96.80</time>
   <energy>
    <i name="e_fr_energy">    -25.57164501</i>
    <i name="e_wo_entrp">    -25.57251085</i>
    <i name="e_0_energy">    -25.57186147</i>
   </energy>
  </scstep>
  <scstep>
   <time name="diag">   23.34   20.13</time>
   <time name="diis">   93.19   49.75</time>
   <time name="orth">    4.39    1.40</time>
   <time name="total">  131.29   81.64</time>
   <energy>
    <i name="alphaZ">    228.18410549</i>
    <i name="ewald">   9274.61733154</i>
    <i name="hartreedc"> -14628.37815148</i>
    <i name="XCdc">    151.64017853</i>
    <i name="pawpsdc">   4539.14962204</i>
    <i name="pawaedc">  -4881.70088968</i>
    <i name="eentropy">      0.00086638</i>
    <i name="bandstr">   -106.24166339</i>
    <i name="atom">   5397.15695484</i>
    <i name="e_fr_energy">    -25.57164575</i>
    <i name="e_wo_entrp">    -25.57251213</i>
    <i name="e_0_energy">    -25.57186235</i>
   </energy>
  </scstep>
  <structure>
   <crystal>
    <varray name="basis" >
     <v>       1.76500000       1.76500000       0.00000000 </v>
     <v>      -1.76500000       1.76500000       0.00000000 </v>
     <v>       0.00000000       0.00000000      17.65000000 </v>
    </varray>
    <i name="volume">    109.96744250</i>
    <varray name="rec_basis" >
     <v>       0.28328612       0.28328612       0.00000000 </v>
     <v>      -0.28328612       0.28328612       0.00000000 </v>
     <v>       0.00000000       0.00000000       0.05665722 </v>
    </varray>
   </crystal>
   <varray name="positions" >
    <v>       0.00000000       0.00000000       0.00000000 </v>
    <v>       0.50000000       0.50000000       0.10000000 </v>
    <v>       0.00000000       0.00000000       0.20000000 </v>
    <v>       0.50000000       0.50000000       0.30170886 </v>
    <v>       0.00000000       0.00000000       0.39826936 </v>
   </varray>
  </structure>
  <varray name="forces" >
   <v>       0.00000000       0.00000000       0.40126252 </v>
   <v>       0.00000000       0.00000000      -0.38231657 </v>
   <v>       0.00000000       0.00000000       0.10384499 </v>
   <v>       0.00000000       0.00000000       0.01271628 </v>
   <v>       0.00000000       0.00000000      -0.13550722 </v>
  </varray>
  <varray name="stress" >
   <v>     -57.71837620       0.00000000      -0.00000000 </v>
   <v>       0.00000000     -57.71837620      -0.00000000 </v>
   <v>      -0.00000000      -0.00000000     -36.57574132 </v>
  </varray>
  <energy>
   <i name="e_fr_energy">    -25.57164575</i>
   <i name="e_wo_entrp">    -25.57186235</i>
   <i name="e_0_energy">      0.00086638</i>
  </energy>
 </calculation>
 <calculation>
  <scstep>
   <time name="dav">  233.04  110.21</time>
   <time name="total">  254.63  131.79</time>
   <energy>
    <i name="alphaZ">    228.18410549</i>
    <i name="ewald">   9308.63511968</i>
    <i name="hartreedc"> -14662.19611162</i>
    <i name="XCdc">    151.66315536</i>
    <i name="pawpsdc">   4539.14919332</i>
    <i name="pawaedc">  -4881.70046364</i>
    <i name="eentropy">      0.00084090</i>
    <i name="bandstr">   -106.46539947</i>
    <i name="atom">   5397.15695484</i>
    <i name="e_fr_energy">    -25.57260516</i>
    <i name="e_wo_entrp">    -25.57344606</i>
    <i name="e_0_energy">    -25.57281538</i>
   </energy>
  </scstep>
  <scstep>
   <time name="diag">   23.35   20.80</time>
   <time name="diis">  189.76   94.57</time>
   <time name="orth">    4.18    1.42</time>
   <time name="total">  238.88  138.37</time>
   <energy>
    <i name="e_fr_energy">    -25.58443659</i>
    <i name="e_wo_entrp">    -25.58361255</i>
    <i name="e_0_energy">    -25.58423058</i>
   </energy>
  </scstep>
  <scstep>
   <time name="diag">   23.34   20.13</time>
   <time name="diis">  189.58   93.15</time>
   <time name="orth">    4.13    1.41</time>
   <time name="total">  238.44  136.07</time>
   <energy>
    <i name="e_fr_energy">    -25.57408981</i>
    <i name="e_wo_entrp">    -25.57446257</i>
    <i name="e_0_energy">    -25.57418300</i>
   </energy>
  </scstep>
  <scstep>
   <time name="diag">   23.36   20.13</time>
   <time name="diis">  189.61   93.24</time>
   <time name="orth">    4.40    1.41</time>
   <time name="total">  238.74  136.15</time>
   <energy>
    <i name="e_fr_energy">    -25.57346968</i>
    <i name="e_wo_entrp">    -25.57467470</i>
    <i name="e_0_energy">    -25.57377093</i>
   </energy>
  </scstep>
  <scstep>
   <time name="diag">   23.35   20.13</time>
   <time name="diis">  189.55   93.19</time>
   <time name="orth">    4.75    1.42</time>
   <time name="total">  239.25  136.33</time>
   <energy>
    <i name="e_fr_energy">    -25.57367181</i>
    <i name="e_wo_entrp">    -25.57371397</i>
    <i name="e_0_energy">    -25.57368235</i>
   </energy>
  </scstep>
  <scstep>
   <time name="diag">   23.40   20.14</time>
   <time name="diis">  189.33   93.06</time>
   <time name="orth">    4.41    1.42</time>
   <time name="total">  238.74  136.21</time>
   <energy>
    <i name="e_fr_energy">    -25.57291321</i>
    <i name="e_wo_entrp">    -25.57365457</i>
    <i name="e_0_energy">    -25.57309855</i>
   </energy>
  </scstep>
  <scstep>
   <time name="diag">   23.35   20.13</time>
   <time name="diis">  188.84   93.02</time>
   <time name="orth">    3.99    1.41</time>
   <time name="total">  237.79  136.16</time>
   <energy>
    <i name="e_fr_energy">    -25.57289800</i>
    <i name="e_wo_entrp">    -25.57370188</i>
    <i name="e_0_energy">    -25.57309897</i>
   </energy>
  </scstep>
  <scstep>
   <time name="diag">   23.36   20.13</time>
   <time name="diis">  188.49   92.72</time>
   <time name="orth">    3.96    1.41</time>
   <time name="total">  237.23  135.66</time>
   <energy>
    <i name="e_fr_energy">    -25.57284839</i>
    <i name="e_wo_entrp">    -25.57361952</i>
    <i name="e_0_energy">    -25.57304117</i>
   </energy>
  </scstep>
  <scstep>
   <time name="diag">   23.36   20.13</time>
   <time name="diis">  163.00   81.68</time>
   <time name="orth">    4.62    1.42</time>
   <time name="total">  212.39  124.64</time>
   <energy>
    <i name="e_fr_energy">    -25.57285791</i>
    <i name="e_wo_entrp">    -25.57361516</i>
    <i name="e_0_energy">    -25.57304722</i>
   </energy>
  </scstep>
  <scstep>
   <time name="diag">   23.40   20.17</time>
   <time name="diis">  110.11   58.68</time>
   <time name="orth">    3.97    1.41</time>
   <time name="total">  158.92  101.69</time>
   <energy>
    <i name="e_fr_energy">    -25.57286420</i>
    <i name="e_wo_entrp">    -25.57363082</i>
    <i name="e_0_energy">    -25.57305586</i>
   </energy>
  </scstep>
  <scstep>
   <time name="diag">   23.41   20.14</time>
   <time name="diis">  108.99   58.19</time>
   <time name="orth">    4.15    1.41</time>
   <time name="total">  158.00  101.17</time>
   <energy>
    <i name="e_fr_energy">    -25.57286994</i>
    <i name="e_wo_entrp">    -25.57363799</i>
    <i name="e_0_energy">    -25.57306195</i>
   </energy>
  </scstep>
  <scstep>
   <time name="diag">   23.35   20.13</time>
   <time name="diis">  111.77   59.38</time>
   <time name="orth">    4.32    1.42</time>
   <time name="total">  161.14  102.61</time>
   <energy>
    <i name="e_fr_energy">    -25.57287768</i>
    <i name="e_wo_entrp">    -25.57364744</i>
    <i name="e_0_energy">    -25.57307012</i>
   </energy>
  </scstep>
  <scstep>
   <time name="diag">   23.35   20.13</time>
   <time name="diis">   98.82   52.77</time>
   <time name="orth">    4.13    1.42</time>
   <time name="total">  148.01   96.03</time>
   <energy>
    <i name="e_fr_energy">    -25.57288118</i>
    <i name="e_wo_entrp">    -25.57365067</i>
    <i name="e_0_energy">    -25.57307355</i>
   </energy>
  </scstep>
  <scstep>
   <time name="diag">   23.35   20.13</time>
   <time name="diis">   91.33   48.75</time>
   <time name="orth">    4.19    1.41</time>
   <time name="total">  140.61   92.03</time>
   <energy>
    <i name="e_fr_energy">    -25.57288298</i>
    <i name="e_wo_entrp">    -25.57365264</i>
    <i name="e_0_energy">    -25.57307539</i>
   </energy>
  </scstep>
  <scstep>
   <time name="diag">   23.34   20.13</time>
   <time name="diis">   88.98   47.49</time>
   <time name="orth">    4.15    1.42</time>
   <time name="total">  126.83   79.39</time>
   <energy>
    <i name="alphaZ">    228.18410549</i>
    <i name="ewald">   9308.63511968</i>
    <i name="hartreedc"> -14662.13913887</i>
    <i name="XCdc">    151.65759754</i>
    <i name="pawpsdc">   4540.78921082</i>
    <i name="pawaedc">  -4883.39057242</i>
    <i name="eentropy">      0.00076963</i>
    <i name="bandstr">   -106.46693021</i>
    <i name="atom">   5397.15695484</i>
    <i name="e_fr_energy">    -25.57288350</i>
    <i name="e_wo_entrp">    -25.57365314</i>
    <i name="e_0_energy">    -25.57307591</i>
   </energy>
  </scstep>
  <structure>
   <crystal>
    <varray name="basis" >
     <v>       1.76500000       1.76500000       0.00000000 </v>
     <v>      -1.76500000       1.76500000       0.00000000 </v>
     <v>       0.00000000       0.00000000      17.65000000 </v>
    </varray>
    <i name="volume">    109.96744250</i>
    <varray name="rec_basis" >
     <v>       0.28328612       0.28328612       0.00000000 </v>
     <v>      -0.28328612       0.28328612       0.00000000 </v>
     <v>       0.00000000       0.00000000       0.05665722 </v>
    </varray>
   </crystal>
   <varray name="positions" >
    <v>       0.00000000       0.00000000       0.00000000 </v>
    <v>       0.50000000       0.50000000       0.10000000 </v>
    <v>       0.00000000       0.00000000       0.20000000 </v>
    <v>       0.50000000       0.50000000       0.30177505 </v>
    <v>       0.00000000       0.00000000       0.39756401 </v>
   </varray>
  </structure>
  <varray name="forces" >
   <v>       0.00000000       0.00000000       0.40148300 </v>
   <v>       0.00000000       0.00000000      -0.38251870 </v>
   <v>       0.00000000       0.00000000       0.10261417 </v>
   <v>       0.00000000       0.00000000      -0.05955118 </v>
   <v>       0.00000000       0.00000000      -0.06202729 </v>
  </varray>
  <varray name="stress" >
   <v>     -56.47331180       0.00000000       0.00000000 </v>
   <v>       0.00000000     -56.47331180       0.00000000 </v>
   <v>       0.00000000       0.00000000     -34.80313247 </v>
  </varray>
  <energy>
   <i name="e_fr_energy">    -25.57288350</i>
   <i name="e_wo_entrp">    -25.57307591</i>
   <i name="e_0_energy">      0.00076963</i>
  </energy>
 </calculation>
 <calculation>
  <scstep>
   <time name="dav">  232.68  110.12</time>
   <time name="total">  254.28  131.72</time>
   <energy>
    <i name="alphaZ">    228.18410549</i>
    <i name="ewald">   9413.02099035</i>
    <i name="hartreedc"> -14766.21747290</i>
    <i name="XCdc">    151.70174296</i>
    <i name="pawpsdc">   4540.78867163</i>
    <i name="pawaedc">  -4883.39002270</i>
    <i name="eentropy">      0.00067835</i>
    <i name="bandstr">   -106.81902790</i>
    <i name="atom">   5397.15695484</i>
    <i name="e_fr_energy">    -25.57337988</i>
    <i name="e_wo_entrp">    -25.57405823</i>
    <i name="e_0_energy">    -25.57354947</i>
   </energy>
  </scstep>
  <scstep>
   <time name="diag">   23.34   20.12</time>
   <time name="diis">  190.02   93.39</time>
   <time name="orth">    4.17    1.42</time>
   <time name="total">  239.00  136.40</time>
   <energy>
    <i name="e_fr_energy">    -25.76140618</i>
    <i name="e_wo_entrp">    -25.75355025</i>
    <i name="e_0_energy">    -25.75944220</i>
   </energy>
  </scstep>
  <scstep>
   <time name="diag">   23.41   20.19</time>
   <time name="diis">  189.36   93.05</time>
   <time name="orth">    4.20    1.41</time>
   <time name="total">  238.35  136.01</time>
   <energy>
    <i name="e_fr_energy">    -25.59118245</i>
    <i name="e_wo_entrp">    -25.58763596</i>
    <i name="e_0_energy">    -25.59029583</i>
   </energy>
  </scstep>
  <scstep>
   <time name="diag">   23.34   20.12</time>
   <time name="diis">  189.48   93.13</time>
   <time name="orth">    4.73    1.41</time>
   <time name="total">  238.92  136.03</time>
   <energy>
    <i name="e_fr_energy">    -25.57838306</i>
    <i name="e_wo_entrp">    -25.57930803</i>
    <i name="e_0_energy">    -25.57861430</i>
   </energy>
  </scstep>
  <scstep>
   <time name="diag">   23.34   20.12</time>
   <time name="diis">  190.02   93.36</time>
   <time name="orth">    4.16    1.41</time>
   <time name="total">  238.83  136.20</time>
   <energy>
    <i name="e_fr_energy">    -25.57875477</i>
    <i name="e_wo_entrp">    -25.57760269</i>
    <i name="e_0_energy">    -25.57846675</i>
   </energy>
  </scstep>
  <scstep>
   <time name="diag">   23.37   20.13</time>
   <time name="diis">  190.01   93.37</time>
   <time name="orth">    4.32    1.41</time>
   <time name="total">  239.34  136.55</time>
   <energy>
    <i name="e_fr_energy">    -25.57499909</i>
    <i name="e_wo_entrp">    -25.57500950</i>
    <i name="e_0_energy">    -25.57500169</i>
   </energy>
  </scstep>
  <scstep>
   <time name="diag">   23.36   20.13</time>
   <time name="diis">  190.08   93.42</time>
   <time name="orth">    4.13    1.41</time>
   <time name="total">  239.22  136.60</time>
   <energy>
    <i name="e_fr_energy">    -25.57459312</i>
    <i name="e_wo_entrp">    -25.57478212</i>
    <i name="e_0_energy">    -25.57464037</i>
   </energy>
  </scstep>
  <scstep>
   <time name="diag">   23.36   20.13</time>
   <time name="diis">  190.23   93.51</time>
   <time name="orth">    4.01    1.42</time>
   <time name="total">  239.27  136.72</time>
   <energy>
    <i name="e_fr_energy">    -25.57414130</i>
    <i name="e_wo_entrp">    -25.57446337</i>
    <i name="e_0_energy">    -25.57422182</i>
   </energy>
  </scstep>
  <scstep>
   <time name="diag">   23.36   20.13</time>
   <time name="diis">  188.79   92.90</time>
   <time name="orth">    4.65    1.41</time>
   <time name="total">  238.51  136.15</time>
   <energy>
    <i name="e_fr_energy">    -25.57414634</i>
    <i name="e_wo_entrp">    -25.57445087</i>
    <i name="e_0_energy">    -25.57422247</i>
   </energy>
  </scstep>
  <scstep>
   <time name="diag">   23.36   20.13</time>
   <time name="diis">  180.54   89.31</time>
   <time name="orth">    4.02    1.41</time>
   <time name="total">  229.64  132.56</time>
   <energy>
    <i name="e_fr_energy">    -25.57419169</i>
    <i name="e_wo_entrp">    -25.57451640</i>
    <i name="e_0_energy">    -25.57427287</i>
   </energy>
  </scstep>
  <scstep>
   <time name="diag">   23.39   20.14</time>
   <time name="diis">  129.44   67.10</time>
   <time name="orth">    4.63    1.41</time>
   <time name="total">  179.18  110.35</time>
   <energy>
    <i name="e_fr_energy">    -25.57424676</i>
    <i name="e_wo_entrp">    -25.57456642</i>
    <i name="e_0_energy">    -25.57432667</i>
   </energy>
  </scstep>
  <scstep>
   <time name="diag">   23.36   20.13</time>
   <time name="diis">  124.79   65.02</time>
   <time name="orth">    4.01    1.41</time>
   <time name="total">  173.88  108.28</time>
   <energy>
    <i name="e_fr_energy">    -25.57431137</i>
    <i name="e_wo_entrp">    -25.57462960</i>
    <i name="e_0_energy">    -25.57439093</i>
   </energy>
  </scstep>
  <scstep>
   <time name="diag">   23.35   20.13</time>
   <time name="diis">  127.48   66.19</time>
   <time name="orth">    3.96    1.41</time>
   <time name="total">  176.27  109.20</time>
   <energy>
    <i name="e_fr_energy">    -25.57437326</i>
    <i name="e_wo_entrp">    -25.57469224</i>
    <i name="e_0_energy">    -25.57445301</i>
   </energy>
  </scstep>
  <scstep>
   <time name="diag">   23.34   20.12</time>
   <time name="diis">  123.67   64.59</time>
   <time name="orth">    4.15    1.41</time>
   <time name="total">  172.86  107.82</time>
   <energy>
    <i name="e_fr_energy">    -25.57439909</i>
    <i name="e_wo_entrp">    -25.57471917</i>
    <i name="e_0_energy">    -25.57447911</i>
   </energy>
  </scstep>
  <scstep>
   <time name="diag">   23.36   20.13</time>
   <time name="diis">  116.30   61.24</time>
   <time name="orth">    4.53    1.43</time>
   <time name="total">  165.92  104.51</time>
   <energy>
    <i name="e_fr_energy">    -25.57440714</i>
    <i name="e_wo_entrp">    -25.57472605</i>
    <i name="e_0_energy">    -25.57448687</i>
   </energy>
  </scstep>
  <scstep>
   <time name="diag">   23.35   20.13</time>
   <time name="diis">  101.95   54.09</time>
   <time name="orth">    4.38    1.41</time>
   <time name="total">  151.46   97.40</time>
   <energy>
    <i name="e_fr_energy">    -25.57440825</i>
    <i name="e_wo_entrp">    -25.57472843</i>
    <i name="e_0_energy">    -25.57448829</i>
   </energy>
  </scstep>
  <scstep>
   <time name="diag">   23.35   20.13</time>
   <time name="diis">   76.48   41.22</time>
   <time name="orth">    4.08    1.41</time>
   <time name="total">  114.28   73.11</time>
   <energy>
    <i name="alphaZ">    228.18410549</i>
    <i name="ewald">   9413.02099035</i>
    <i name="hartreedc"> -14766.17305837</i>
    <i name="XCdc">    151.68965233</i>
    <i name="pawpsdc">   4543.56647203</i>
    <i name="pawaedc">  -4886.24133084</i>
    <i name="eentropy">      0.00032020</i>
    <i name="bandstr">   -106.77851436</i>
    <i name="atom">   5397.15695484</i>
    <i name="e_fr_energy">    -25.57440834</i>
    <i name="e_wo_entrp">    -25.57472854</i>
    <i name="e_0_energy">    -25.57448839</i>
   </energy>
  </scstep>
  <structure>
   <crystal>
    <varray name="basis" >
     <v>       1.76500000       1.76500000       0.00000000 </v>
     <v>      -1.76500000       1.76500000       0.00000000 </v>
     <v>       0.00000000       0.00000000      17.65000000 </v>
    </varray>
    <i name="volume">    109.96744250</i>
    <varray name="rec_basis" >
     <v>       0.28328612       0.28328612       0.00000000 </v>
     <v>      -0.28328612       0.28328612       0.00000000 </v>
     <v>       0.00000000       0.00000000       0.05665722 </v>
    </varray>
   </crystal>
   <varray name="positions" >
    <v>       0.00000000       0.00000000       0.00000000 </v>
    <v>       0.50000000       0.50000000       0.10000000 </v>
    <v>       0.00000000       0.00000000       0.20000000 </v>
    <v>       0.50000000       0.50000000       0.30037519 </v>
    <v>       0.00000000       0.00000000       0.39621103 </v>
   </varray>
  </structure>
  <varray name="forces" >
   <v>       0.00000000       0.00000000       0.39984164 </v>
   <v>       0.00000000       0.00000000      -0.39183341 </v>
   <v>       0.00000000       0.00000000      -0.00384499 </v>
   <v>       0.00000000       0.00000000       0.03310426 </v>
   <v>       0.00000000       0.00000000      -0.03726750 </v>
  </varray>
  <varray name="stress" >
   <v>     -54.53683070       0.00000000       0.00000000 </v>
   <v>       0.00000000     -54.53683070       0.00000000 </v>
   <v>      -0.00000000       0.00000000     -31.20929727 </v>
  </varray>
  <energy>
   <i name="e_fr_energy">    -25.57440834</i>
   <i name="e_wo_entrp">    -25.57448839</i>
   <i name="e_0_energy">      0.00032020</i>
  </energy>
 </calculation>
 <calculation>
  <scstep>
   <time name="dav">  232.86  110.13</time>
   <time name="total">  254.46  131.70</time>
   <energy>
    <i name="alphaZ">    228.18410549</i>
    <i name="ewald">   9433.19945034</i>
    <i name="hartreedc"> -14786.23829958</i>
    <i name="XCdc">    151.70241969</i>
    <i name="pawpsdc">   4543.56633858</i>
    <i name="pawaedc">  -4886.24124872</i>
    <i name="eentropy">      0.00029620</i>
    <i name="bandstr">   -106.90446411</i>
    <i name="atom">   5397.15695484</i>
    <i name="e_fr_energy">    -25.57444727</i>
    <i name="e_wo_entrp">    -25.57474347</i>
    <i name="e_0_energy">    -25.57452132</i>
   </energy>
  </scstep>
  <scstep>
   <time name="diag">   23.36   20.13</time>
   <time name="diis">  189.58   93.22</time>
   <time name="orth">    4.76    1.42</time>
   <time name="total">  239.30  136.36</time>
   <energy>
    <i name="e_fr_energy">    -25.57865211</i>
    <i name="e_wo_entrp">    -25.57808862</i>
    <i name="e_0_energy">    -25.57851124</i>
   </energy>
  </scstep>
  <scstep>
   <time name="diag">   23.35   20.13</time>
   <time name="diis">  189.44   93.15</time>
   <time name="orth">    4.10    1.42</time>
   <time name="total">  238.50  136.30</time>
   <energy>
    <i name="e_fr_energy">    -25.57492756</i>
    <i name="e_wo_entrp">    -25.57499529</i>
    <i name="e_0_energy">    -25.57494449</i>
   </energy>
  </scstep>
  <scstep>
   <time name="diag">   23.36   20.13</time>
   <time name="diis">  189.83   93.29</time>
   <time name="orth">    4.33    1.42</time>
   <time name="total">  239.12  136.42</time>
   <energy>
    <i name="e_fr_energy">    -25.57470797</i>
    <i name="e_wo_entrp">    -25.57521054</i>
    <i name="e_0_energy">    -25.57483361</i>
   </energy>
  </scstep>
  <scstep>
   <time name="diag">   23.35   20.13</time>
   <time name="diis">  189.61   93.20</time>
   <time name="orth">    4.31    1.42</time>
   <time name="total">  238.86  136.33</time>
   <energy>
    <i name="e_fr_energy">    -25.57476572</i>
    <i name="e_wo_entrp">    -25.57464638</i>
    <i name="e_0_energy">    -25.57473588</i>
   </energy>
  </scstep>
  <scstep>
   <time name="diag">   23.35   20.13</time>
   <time name="diis">  189.31   93.08</time>
   <time name="orth">    3.96    1.41</time>
   <time name="total">  238.24  136.22</time>
   <energy>
    <i name="e_fr_energy">    -25.57452986</i>
    <i name="e_wo_entrp">    -25.57476241</i>
    <i name="e_0_energy">    -25.57458800</i>
   </energy>
  </scstep>
  <scstep>
   <time name="diag">   23.36   20.13</time>
   <time name="diis">  188.36   92.68</time>
   <time name="orth">    4.31    1.41</time>
   <time name="total">  237.65  135.83</time>
   <energy>
    <i name="e_fr_energy">    -25.57452380</i>
    <i name="e_wo_entrp">    -25.57478116</i>
    <i name="e_0_energy">    -25.57458814</i>
   </energy>
  </scstep>
  <scstep>
   <time name="diag">   23.34   20.12</time>
   <time name="diis">  185.49   91.39</time>
   <time name="orth">    4.34    1.42</time>
   <time name="total">  234.78  134.54</time>
   <energy>
    <i name="e_fr_energy">    -25.57450770</i>
    <i name="e_wo_entrp">    -25.57475386</i>
    <i name="e_0_energy">    -25.57456924</i>
   </energy>
  </scstep>
  <scstep>
   <time name="diag">   23.37   20.13</time>
   <time name="diis">  117.81   62.10</time>
   <time name="orth">    4.32    1.43</time>
   <time name="total">  167.15  105.30</time>
   <energy>
    <i name="e_fr_energy">    -25.57451121</i>
    <i name="e_wo_entrp">    -25.57475528</i>
    <i name="e_0_energy">    -25.57457223</i>
   </energy>
  </scstep>
  <scstep>
   <time name="diag">   23.35   20.13</time>
   <time name="diis">  107.50   57.56</time>
   <time name="orth">    4.31    1.42</time>
   <time name="total">  156.84  100.77</time>
   <energy>
    <i name="e_fr_energy">    -25.57451292</i>
    <i name="e_wo_entrp">    -25.57476132</i>
    <i name="e_0_energy">    -25.57457502</i>
   </energy>
  </scstep>
  <scstep>
   <time name="diag">   23.35   20.13</time>
   <time name="diis">  106.59   57.12</time>
   <time name="orth">    5.01    1.41</time>
   <time name="total">  156.65  100.34</time>
   <energy>
    <i name="e_fr_energy">    -25.57451455</i>
    <i name="e_wo_entrp">    -25.57476373</i>
    <i name="e_0_energy">    -25.57457684</i>
   </energy>
  </scstep>
  <scstep>
   <time name="diag">   23.35   20.13</time>
   <time name="diis">   98.66   52.65</time>
   <time name="orth">    4.20    1.42</time>
   <time name="total">  147.92   95.89</time>
   <energy>
    <i name="e_fr_energy">    -25.57451709</i>
    <i name="e_wo_entrp">    -25.57476706</i>
    <i name="e_0_energy">    -25.57457958</i>
   </energy>
  </scstep>
  <scstep>
   <time name="diag">   23.36   20.13</time>
   <time name="diis">   86.44   46.25</time>
   <time name="orth">    4.34    1.42</time>
   <time name="total">  135.88   89.52</time>
   <energy>
    <i name="e_fr_energy">    -25.57451811</i>
    <i name="e_wo_entrp">    -25.57476778</i>
    <i name="e_0_energy">    -25.57458053</i>
   </energy>
  </scstep>
  <scstep>
   <time name="diag">   23.38   20.13</time>
   <time name="diis">   85.20   45.65</time>
   <time name="orth">    4.61    1.42</time>
   <time name="total">  123.58   77.59</time>
   <energy>
    <i name="alphaZ">    228.18410549</i>
    <i name="ewald">   9433.19945034</i>
    <i name="hartreedc"> -14786.20760143</i>
    <i name="XCdc">    151.69943533</i>
    <i name="pawpsdc">   4544.48301976</i>
    <i name="pawaedc">  -4887.18583517</i>
    <i name="eentropy">      0.00024979</i>
    <i name="bandstr">   -106.90429759</i>
    <i name="atom">   5397.15695484</i>
    <i name="e_fr_energy">    -25.57451865</i>
    <i name="e_wo_entrp">    -25.57476844</i>
    <i name="e_0_energy">    -25.57458110</i>
   </energy>
  </scstep>
  <structure>
   <crystal>
    <varray name="basis" >
     <v>       1.76500000       1.76500000       0.00000000 </v>
     <v>      -1.76500000       1.76500000       0.00000000 </v>
     <v>       0.00000000       0.00000000      17.65000000 </v>
    </varray>
    <i name="volume">    109.96744250</i>
    <varray name="rec_basis" >
     <v>       0.28328612       0.28328612       0.00000000 </v>
     <v>      -0.28328612       0.28328612       0.00000000 </v>
     <v>       0.00000000       0.00000000       0.05665722 </v>
    </varray>
   </crystal>
   <varray name="positions" >
    <v>       0.00000000       0.00000000       0.00000000 </v>
    <v>       0.50000000       0.50000000       0.10000000 </v>
    <v>       0.00000000       0.00000000       0.20000000 </v>
    <v>       0.50000000       0.50000000       0.30036563 </v>
    <v>       0.00000000       0.00000000       0.39581947 </v>
   </varray>
  </structure>
  <varray name="forces" >
   <v>       0.00000000       0.00000000       0.39880115 </v>
   <v>       0.00000000       0.00000000      -0.39330708 </v>
   <v>       0.00000000       0.00000000      -0.00863799 </v>
   <v>       0.00000000       0.00000000      -0.00211453 </v>
   <v>       0.00000000       0.00000000       0.00525845 </v>
  </varray>
  <varray name="stress" >
   <v>     -53.79485735       0.00000000      -0.00000000 </v>
   <v>       0.00000000     -53.79485735       0.00000000 </v>
   <v>      -0.00000000       0.00000000     -30.12205911 </v>
  </varray>
  <energy>
   <i name="e_fr_energy">    -25.57451865</i>
   <i name="e_wo_entrp">    -25.57458110</i>
   <i name="e_0_energy">      0.00024979</i>
  </energy>
 </calculation>
 <calculation>
  <scstep>
   <time name="dav">  233.69  110.43</time>
   <time name="total">  255.29  132.03</time>
   <energy>
    <i name="alphaZ">    228.18410549</i>
    <i name="ewald">   9428.86269635</i>
    <i name="hartreedc"> -14781.88945619</i>
    <i name="XCdc">    151.69718667</i>
    <i name="pawpsdc">   4544.48290492</i>
    <i name="pawaedc">  -4887.18574071</i>
    <i name="eentropy">      0.00025398</i>
    <i name="bandstr">   -106.88342633</i>
    <i name="atom">   5397.15695484</i>
    <i name="e_fr_energy">    -25.57452098</i>
    <i name="e_wo_entrp">    -25.57477496</i>
    <i name="e_0_energy">    -25.57458447</i>
   </energy>
  </scstep>
  <scstep>
   <time name="diag">   23.34   20.13</time>
   <time name="diis">  188.65   92.76</time>
   <time name="orth">    4.33    1.42</time>
   <time name="total">  238.01  135.99</time>
   <energy>
    <i name="e_fr_energy">    -25.57476133</i>
    <i name="e_wo_entrp">    -25.57518643</i>
    <i name="e_0_energy">    -25.57486760</i>
   </energy>
  </scstep>
  <scstep>
   <time name="diag">   23.39   20.15</time>
   <time name="diis">  187.53   92.28</time>
   <time name="orth">    4.26    1.42</time>
   <time name="total">  236.86  135.53</time>
   <energy>
    <i name="e_fr_energy">    -25.57454236</i>
    <i name="e_wo_entrp">    -25.57484337</i>
    <i name="e_0_energy">    -25.57461761</i>
   </energy>
  </scstep>
  <scstep>
   <time name="diag">   23.36   20.12</time>
   <time name="diis">  185.63   91.48</time>
   <time name="orth">    4.35    1.41</time>
   <time name="total">  234.97  134.64</time>
   <energy>
    <i name="e_fr_energy">    -25.57452985</i>
    <i name="e_wo_entrp">    -25.57474399</i>
    <i name="e_0_energy">    -25.57458338</i>
   </energy>
  </scstep>
  <scstep>
   <time name="diag">   23.38   20.13</time>
   <time name="diis">  181.90   89.84</time>
   <time name="orth">    4.23    1.42</time>
   <time name="total">  231.15  133.03</time>
   <energy>
    <i name="e_fr_energy">    -25.57453294</i>
    <i name="e_wo_entrp">    -25.57486856</i>
    <i name="e_0_energy">    -25.57461685</i>
   </energy>
  </scstep>
  <scstep>
   <time name="diag">   23.36   20.13</time>
   <time name="diis">  164.48   82.30</time>
   <time name="orth">    4.41    1.41</time>
   <time name="total">  213.90  125.49</time>
   <energy>
    <i name="e_fr_energy">    -25.57452351</i>
    <i name="e_wo_entrp">    -25.57479662</i>
    <i name="e_0_energy">    -25.57459179</i>
   </energy>
  </scstep>
  <scstep>
   <time name="diag">   23.36   20.14</time>
   <time name="diis">  106.26   57.02</time>
   <time name="orth">    4.30    1.41</time>
   <time name="total">  144.33   88.97</time>
   <energy>
    <i name="alphaZ">    228.18410549</i>
    <i name="ewald">   9428.86269635</i>
    <i name="hartreedc"> -14781.88647855</i>
    <i name="XCdc">    151.69758047</i>
    <i name="pawpsdc">   4544.37883085</i>
    <i name="pawaedc">  -4887.07845221</i>
    <i name="eentropy">      0.00026701</i>
    <i name="bandstr">   -106.89002757</i>
    <i name="atom">   5397.15695484</i>
    <i name="e_fr_energy">    -25.57452333</i>
    <i name="e_wo_entrp">    -25.57479034</i>
    <i name="e_0_energy">    -25.57459008</i>
   </energy>
  </scstep>
  <structure>
   <crystal>
    <varray name="basis" >
     <v>       1.76500000       1.76500000       0.00000000 </v>
     <v>      -1.76500000       1.76500000       0.00000000 </v>
     <v>       0.00000000       0.00000000      17.65000000 </v>
    </varray>
    <i name="volume">    109.96744250</i>
    <varray name="rec_basis" >
     <v>       0.28328612       0.28328612       0.00000000 </v>
     <v>      -0.28328612       0.28328612       0.00000000 </v>
     <v>       0.00000000       0.00000000       0.05665722 </v>
    </varray>
   </crystal>
   <varray name="positions" >
    <v>       0.00000000       0.00000000       0.00000000 </v>
    <v>       0.50000000       0.50000000       0.10000000 </v>
    <v>       0.00000000       0.00000000       0.20000000 </v>
    <v>       0.50000000       0.50000000       0.30039442 </v>
    <v>       0.00000000       0.00000000       0.39589016 </v>
   </varray>
  </structure>
  <varray name="forces" >
   <v>       0.00000000       0.00000000       0.39875622 </v>
   <v>       0.00000000       0.00000000      -0.39304792 </v>
   <v>       0.00000000       0.00000000      -0.00631892 </v>
   <v>       0.00000000       0.00000000      -0.00002097 </v>
   <v>       0.00000000       0.00000000       0.00063159 </v>
  </varray>
  <varray name="stress" >
   <v>     -53.88969327       0.00000000       0.00000000 </v>
   <v>       0.00000000     -53.88969327       0.00000000 </v>
   <v>       0.00000000       0.00000000     -30.23864831 </v>
  </varray>
  <energy>
   <i name="e_fr_energy">    -25.57452333</i>
   <i name="e_wo_entrp">    -25.57459008</i>
   <i name="e_0_energy">      0.00026701</i>
  </energy>
  <eigenvalues>
   <array>
    <dimension dim="1">band</dimension>
    <dimension dim="2">kpoint</dimension>
    <dimension dim="3">spin</dimension>
    <field>eigene</field>
    <field>occ</field>
    <set>
     <set comment="spin 1">
      <set comment="kpoint 1">
       <r>  -8.5270  1.0000</r>
       <r>  -7.3451  1.0000</r>
       <r>  -5.6763  1.0000</r>
       <r>  -4.5371  1.0000</r>
       <r>  -4.4567  1.0000</r>
       <r>  -4.0175  1.0000</r>
       <r>  -3.6548  1.0000</r>
       <r>  -3.1447  1.0000</r>
       <r>  -2.6648  1.0000</r>
       <r>  -2.4331  1.0000</r>
       <r>  -2.2958  1.0000</r>
       <r>  -2.2958  1.0000</r>
       <r>  -1.9207  1.0000</r>
       <r>  -1.9207  1.0000</r>
       <r>  -1.7520  1.0000</r>
       <r>  -1.4771  1.0000</r>
       <r>  -1.3287  1.0000</r>
       <r>  -1.3287  1.0000</r>
       <r>  -1.2931  1.0000</r>
       <r>  -1.2418  1.0000</r>
       <r>  -1.1722  1.0000</r>
       <r>  -1.0790  1.0000</r>
       <r>  -0.8136  1.0000</r>
       <r>  -0.7999  1.0000</r>
       <r>  -0.7999  1.0000</r>
       <r>  -0.6327  0.9994</r>
       <r>  -0.5668  0.9980</r>
       <r>  -0.5292  0.9967</r>
       <r>  -0.5292  0.9967</r>
       <r>   0.5668  0.0001</r>
       <r>   1.9269  0.0000</r>
       <r>   4.8218  0.0000</r>
       <r>   5.9564  0.0000</r>
      </set>
      <set comment="kpoint 2">
       <r>  -8.2151  1.0000</r>
       <r>  -7.0532  1.0000</r>
       <r>  -5.4247  1.0000</r>
       <r>  -4.3439  1.0000</r>
       <r>  -4.2710  1.0000</r>
       <r>  -3.9177  1.0000</r>
       <r>  -3.5695  1.0000</r>
       <r>  -3.0921  1.0000</r>
       <r>  -2.6572  1.0000</r>
       <r>  -2.3634  1.0000</r>
       <r>  -2.3171  1.0000</r>
       <r>  -2.2551  1.0000</r>
       <r>  -2.1376  1.0000</r>
       <r>  -1.9467  1.0000</r>
       <r>  -1.8653  1.0000</r>
       <r>  -1.5376  1.0000</r>
       <r>  -1.4930  1.0000</r>
       <r>  -1.4132  1.0000</r>
       <r>  -1.2985  1.0000</r>
       <r>  -1.2751  1.0000</r>
       <r>  -1.1184  1.0000</r>
       <r>  -1.0414  1.0000</r>
       <r>  -1.0296  1.0000</r>
       <r>  -1.0119  1.0000</r>
       <r>  -0.7210  0.9999</r>
       <r>  -0.7132  0.9999</r>
       <r>  -0.5968  0.9988</r>
       <r>  -0.5088  0.9960</r>
       <r>  -0.4530  0.9952</r>
       <r>   1.1753  0.0000</r>
       <r>   2.6253  0.0000</r>
       <r>   5.1177  0.0000</r>
       <r>   6.2927  0.0000</r>
      </set>
      <set comment="kpoint 3">
       <r>  -7.3238  1.0000</r>
       <r>  -6.2557  1.0000</r>
       <r>  -4.8501  1.0000</r>
       <r>  -3.9750  1.0000</r>
       <r>  -3.8790  1.0000</r>
       <r>  -3.6270  1.0000</r>
       <r>  -3.2309  1.0000</r>
       <r>  -2.8345  1.0000</r>
       <r>  -2.6878  1.0000</r>
       <r>  -2.3135  1.0000</r>
       <r>  -2.2845  1.0000</r>
       <r>  -2.2410  1.0000</r>
       <r>  -2.2112  1.0000</r>
       <r>  -2.1690  1.0000</r>
       <r>  -2.0376  1.0000</r>
       <r>  -1.8078  1.0000</r>
       <r>  -1.7482  1.0000</r>
       <r>  -1.6827  1.0000</r>
       <r>  -1.5176  1.0000</r>
       <r>  -1.2111  1.0000</r>
       <r>  -1.1854  1.0000</r>
       <r>  -1.1533  1.0000</r>
       <r>  -1.1384  1.0000</r>
       <r>  -0.9347  1.0000</r>
       <r>  -0.8717  1.0000</r>
       <r>  -0.7207  0.9999</r>
       <r>  -0.5672  0.9980</r>
       <r>  -0.5504  0.9975</r>
       <r>   0.3816  0.0040</r>
       <r>   2.3354  0.0000</r>
       <r>   4.0594  0.0000</r>
       <r>   5.9856  0.0000</r>
       <r>   7.2938  0.0000</r>
      </set>
      <set comment="kpoint 4">
       <r>  -6.0256  1.0000</r>
       <r>  -5.2799  1.0000</r>
       <r>  -4.4879  1.0000</r>
       <r>  -3.8875  1.0000</r>
       <r>  -3.5953  1.0000</r>
       <r>  -3.2125  1.0000</r>
       <r>  -2.7259  1.0000</r>
       <r>  -2.6997  1.0000</r>
       <r>  -2.4084  1.0000</r>
       <r>  -2.3645  1.0000</r>
       <r>  -2.3074  1.0000</r>
       <r>  -2.1865  1.0000</r>
       <r>  -2.1742  1.0000</r>
       <r>  -2.1140  1.0000</r>
       <r>  -2.0583  1.0000</r>
       <r>  -1.8879  1.0000</r>
       <r>  -1.8224  1.0000</r>
       <r>  -1.7793  1.0000</r>
       <r>  -1.7317  1.0000</r>
       <r>  -1.3760  1.0000</r>
       <r>  -1.2653  1.0000</r>
       <r>  -0.9034  1.0000</r>
       <r>  -0.8960  1.0000</r>
       <r>  -0.7420  1.0000</r>
       <r>  -0.7235  0.9999</r>
       <r>  -0.6442  0.9995</r>
       <r>  -0.5725  0.9982</r>
       <r>  -0.5232  0.9965</r>
       <r>   1.3482  0.0000</r>
       <r>   3.5133  0.0000</r>
       <r>   5.3532  0.0000</r>
       <r>   5.4798  0.0000</r>
       <r>   6.8882  0.0000</r>
      </set>
      <set comment="kpoint 5">
       <r>  -4.8303  1.0000</r>
       <r>  -4.7167  1.0000</r>
       <r>  -4.4029  1.0000</r>
       <r>  -3.9708  1.0000</r>
       <r>  -3.6218  1.0000</r>
       <r>  -2.8075  1.0000</r>
       <r>  -2.7569  1.0000</r>
       <r>  -2.5074  1.0000</r>
       <r>  -2.4540  1.0000</r>
       <r>  -2.3303  1.0000</r>
       <r>  -2.2874  1.0000</r>
       <r>  -2.2760  1.0000</r>
       <r>  -2.2248  1.0000</r>
       <r>  -2.1360  1.0000</r>
       <r>  -1.9527  1.0000</r>
       <r>  -1.9443  1.0000</r>
       <r>  -1.9222  1.0000</r>
       <r>  -1.5271  1.0000</r>
       <r>  -1.2869  1.0000</r>
       <r>  -1.2057  1.0000</r>
       <r>  -0.9061  1.0000</r>
       <r>  -0.7985  1.0000</r>
       <r>  -0.7957  1.0000</r>
       <r>  -0.6548  0.9996</r>
       <r>  -0.6061  0.9990</r>
       <r>  -0.0530  0.4450</r>
       <r>  -0.0082  0.2246</r>
       <r>   0.2597 -0.0038</r>
       <r>   1.5355  0.0000</r>
       <r>   1.9726  0.0000</r>
       <r>   4.5232  0.0000</r>
       <r>   4.6974  0.0000</r>
       <r>   6.7938  0.0000</r>
      </set>
      <set comment="kpoint 6">
       <r>  -7.9079  1.0000</r>
       <r>  -6.7647  1.0000</r>
       <r>  -5.1742  1.0000</r>
       <r>  -4.1615  1.0000</r>
       <r>  -4.0766  1.0000</r>
       <r>  -3.8154  1.0000</r>
       <r>  -3.4968  1.0000</r>
       <r>  -3.0654  1.0000</r>
       <r>  -2.7069  1.0000</r>
       <r>  -2.2927  1.0000</r>
       <r>  -2.2873  1.0000</r>
       <r>  -2.2496  1.0000</r>
       <r>  -2.1855  1.0000</r>
       <r>  -2.1374  1.0000</r>
       <r>  -1.9433  1.0000</r>
       <r>  -1.6644  1.0000</r>
       <r>  -1.4549  1.0000</r>
       <r>  -1.4201  1.0000</r>
       <r>  -1.3925  1.0000</r>
       <r>  -1.3620  1.0000</r>
       <r>  -1.3049  1.0000</r>
       <r>  -1.1615  1.0000</r>
       <r>  -1.0317  1.0000</r>
       <r>  -0.8530  1.0000</r>
       <r>  -0.8267  1.0000</r>
       <r>  -0.7848  1.0000</r>
       <r>  -0.7005  0.9999</r>
       <r>  -0.5389  0.9971</r>
       <r>   0.0087  0.1547</r>
       <r>   1.6509  0.0000</r>
       <r>   3.1680  0.0000</r>
       <r>   5.4127  0.0000</r>
       <r>   6.6282  0.0000</r>
      </set>
      <set comment="kpoint 7">
       <r>  -7.0343  1.0000</r>
       <r>  -5.9814  1.0000</r>
       <r>  -4.6090  1.0000</r>
       <r>  -3.7928  1.0000</r>
       <r>  -3.7027  1.0000</r>
       <r>  -3.5355  1.0000</r>
       <r>  -3.1997  1.0000</r>
       <r>  -2.9125  1.0000</r>
       <r>  -2.8301  1.0000</r>
       <r>  -2.5095  1.0000</r>
       <r>  -2.3436  1.0000</r>
       <r>  -2.1892  1.0000</r>
       <r>  -2.1606  1.0000</r>
       <r>  -2.1347  1.0000</r>
       <r>  -2.0018  1.0000</r>
       <r>  -1.9238  1.0000</r>
       <r>  -1.8034  1.0000</r>
       <r>  -1.6542  1.0000</r>
       <r>  -1.4619  1.0000</r>
       <r>  -1.4080  1.0000</r>
       <r>  -1.3004  1.0000</r>
       <r>  -1.0880  1.0000</r>
       <r>  -1.0752  1.0000</r>
       <r>  -1.0016  1.0000</r>
       <r>  -0.8951  1.0000</r>
       <r>  -0.7449  1.0000</r>
       <r>  -0.5705  0.9981</r>
       <r>  -0.4076  0.9993</r>
       <r>   0.8032  0.0000</r>
       <r>   2.7193  0.0000</r>
       <r>   4.4525  0.0000</r>
       <r>   6.2804  0.0000</r>
       <r>   7.6242  0.0000</r>
      </set>
      <set comment="kpoint 8">
       <r>  -5.7793  1.0000</r>
       <r>  -5.0402  1.0000</r>
       <r>  -4.2884  1.0000</r>
       <r>  -3.7215  1.0000</r>
       <r>  -3.3993  1.0000</r>
       <r>  -3.2916  1.0000</r>
       <r>  -2.9041  1.0000</r>
       <r>  -2.8066  1.0000</r>
       <r>  -2.6139  1.0000</r>
       <r>  -2.5458  1.0000</r>
       <r>  -2.3611  1.0000</r>
       <r>  -2.2753  1.0000</r>
       <r>  -2.2164  1.0000</r>
       <r>  -2.0345  1.0000</r>
       <r>  -1.9874  1.0000</r>
       <r>  -1.9036  1.0000</r>
       <r>  -1.8331  1.0000</r>
       <r>  -1.7855  1.0000</r>
       <r>  -1.6369  1.0000</r>
       <r>  -1.2921  1.0000</r>
       <r>  -1.1344  1.0000</r>
       <r>  -1.0953  1.0000</r>
       <r>  -0.8696  1.0000</r>
       <r>  -0.7763  1.0000</r>
       <r>  -0.7236  0.9999</r>
       <r>  -0.6595  0.9997</r>
       <r>  -0.6107  0.9991</r>
       <r>   0.0989 -0.0428</r>
       <r>   1.8141  0.0000</r>
       <r>   3.9193  0.0000</r>
       <r>   5.5910  0.0000</r>
       <r>   5.8338  0.0000</r>
       <r>   7.0806  0.0000</r>
      </set>
      <set comment="kpoint 9">
       <r>  -4.6441  1.0000</r>
       <r>  -4.5171  1.0000</r>
       <r>  -4.2361  1.0000</r>
       <r>  -3.8561  1.0000</r>
       <r>  -3.5129  1.0000</r>
       <r>  -2.9793  1.0000</r>
       <r>  -2.9250  1.0000</r>
       <r>  -2.6359  1.0000</r>
       <r>  -2.5967  1.0000</r>
       <r>  -2.5110  1.0000</r>
       <r>  -2.4459  1.0000</r>
       <r>  -2.3280  1.0000</r>
       <r>  -2.2205  1.0000</r>
       <r>  -2.0899  1.0000</r>
       <r>  -1.9737  1.0000</r>
       <r>  -1.9296  1.0000</r>
       <r>  -1.7733  1.0000</r>
       <r>  -1.5223  1.0000</r>
       <r>  -1.4614  1.0000</r>
       <r>  -1.0945  1.0000</r>
       <r>  -1.0433  1.0000</r>
       <r>  -0.9205  1.0000</r>
       <r>  -0.7331  0.9999</r>
       <r>  -0.7014  0.9999</r>
       <r>  -0.6167  0.9992</r>
       <r>   0.2714 -0.0010</r>
       <r>   0.3789  0.0041</r>
       <r>   1.0284  0.0000</r>
       <r>   2.0990  0.0000</r>
       <r>   2.2381  0.0000</r>
       <r>   4.7310  0.0000</r>
       <r>   4.9535  0.0000</r>
       <r>   6.9650  0.0000</r>
      </set>
      <set comment="kpoint 10">
       <r>  -6.2331  1.0000</r>
       <r>  -5.2564  1.0000</r>
       <r>  -4.0718  1.0000</r>
       <r>  -3.5596  1.0000</r>
       <r>  -3.2962  1.0000</r>
       <r>  -3.2278  1.0000</r>
       <r>  -3.1389  1.0000</r>
       <r>  -3.1021  1.0000</r>
       <r>  -2.9855  1.0000</r>
       <r>  -2.9134  1.0000</r>
       <r>  -2.4947  1.0000</r>
       <r>  -2.3584  1.0000</r>
       <r>  -2.1867  1.0000</r>
       <r>  -1.9757  1.0000</r>
       <r>  -1.9427  1.0000</r>
       <r>  -1.8239  1.0000</r>
       <r>  -1.6732  1.0000</r>
       <r>  -1.6296  1.0000</r>
       <r>  -1.4681  1.0000</r>
       <r>  -1.4369  1.0000</r>
       <r>  -1.3400  1.0000</r>
       <r>  -1.2667  1.0000</r>
       <r>  -1.2314  1.0000</r>
       <r>  -0.9537  1.0000</r>
       <r>  -0.8680  1.0000</r>
       <r>  -0.6379  0.9995</r>
       <r>  -0.5575  0.9977</r>
       <r>   0.1806 -0.0359</r>
       <r>   1.6845  0.0000</r>
       <r>   3.7054  0.0000</r>
       <r>   5.5224  0.0000</r>
       <r>   7.1524  0.0000</r>
       <r>   8.5999  0.0000</r>
      </set>
      <set comment="kpoint 11">
       <r>  -5.1715  1.0000</r>
       <r>  -4.4511  1.0000</r>
       <r>  -3.8442  1.0000</r>
       <r>  -3.5230  1.0000</r>
       <r>  -3.4902  1.0000</r>
       <r>  -3.3024  1.0000</r>
       <r>  -3.0756  1.0000</r>
       <r>  -3.0329  1.0000</r>
       <r>  -2.8435  1.0000</r>
       <r>  -2.7839  1.0000</r>
       <r>  -2.6182  1.0000</r>
       <r>  -2.5009  1.0000</r>
       <r>  -2.2702  1.0000</r>
       <r>  -1.8107  1.0000</r>
       <r>  -1.7783  1.0000</r>
       <r>  -1.7228  1.0000</r>
       <r>  -1.6261  1.0000</r>
       <r>  -1.6074  1.0000</r>
       <r>  -1.4509  1.0000</r>
       <r>  -1.1932  1.0000</r>
       <r>  -1.1645  1.0000</r>
       <r>  -1.0099  1.0000</r>
       <r>  -0.9221  1.0000</r>
       <r>  -0.8144  1.0000</r>
       <r>  -0.7034  0.9999</r>
       <r>  -0.5953  0.9988</r>
       <r>  -0.1243  0.8000</r>
       <r>   1.0681  0.0000</r>
       <r>   2.8865  0.0000</r>
       <r>   4.9924  0.0000</r>
       <r>   6.1414  0.0000</r>
       <r>   6.8206  0.0000</r>
       <r>   7.6024  0.0000</r>
      </set>
      <set comment="kpoint 12">
       <r>  -4.3142  1.0000</r>
       <r>  -4.0596  1.0000</r>
       <r>  -3.9274  1.0000</r>
       <r>  -3.7584  1.0000</r>
       <r>  -3.6546  1.0000</r>
       <r>  -3.3304  1.0000</r>
       <r>  -3.1675  1.0000</r>
       <r>  -3.0850  1.0000</r>
       <r>  -2.8265  1.0000</r>
       <r>  -2.7144  1.0000</r>
       <r>  -2.4472  1.0000</r>
       <r>  -2.3883  1.0000</r>
       <r>  -2.2771  1.0000</r>
       <r>  -1.7745  1.0000</r>
       <r>  -1.7506  1.0000</r>
       <r>  -1.7077  1.0000</r>
       <r>  -1.6723  1.0000</r>
       <r>  -1.4988  1.0000</r>
       <r>  -1.3132  1.0000</r>
       <r>  -1.0754  1.0000</r>
       <r>  -0.9175  1.0000</r>
       <r>  -0.8084  1.0000</r>
       <r>  -0.6519  0.9996</r>
       <r>  -0.6104  0.9991</r>
       <r>  -0.5765  0.9983</r>
       <r>   0.5913  0.0001</r>
       <r>   1.2980  0.0000</r>
       <r>   2.4937  0.0000</r>
       <r>   2.9008  0.0000</r>
       <r>   3.4010  0.0000</r>
       <r>   5.3323  0.0000</r>
       <r>   5.6980  0.0000</r>
       <r>   7.5470  0.0000</r>
      </set>
      <set comment="kpoint 13">
       <r>  -4.6021  1.0000</r>
       <r>  -3.9337  1.0000</r>
       <r>  -3.8180  1.0000</r>
       <r>  -3.6563  1.0000</r>
       <r>  -3.6323  1.0000</r>
       <r>  -3.5478  1.0000</r>
       <r>  -3.3172  1.0000</r>
       <r>  -3.2832  1.0000</r>
       <r>  -2.9471  1.0000</r>
       <r>  -2.7605  1.0000</r>
       <r>  -2.7429  1.0000</r>
       <r>  -2.2993  1.0000</r>
       <r>  -2.2243  1.0000</r>
       <r>  -1.4210  1.0000</r>
       <r>  -1.4034  1.0000</r>
       <r>  -1.3746  1.0000</r>
       <r>  -1.3398  1.0000</r>
       <r>  -1.2543  1.0000</r>
       <r>  -1.0775  1.0000</r>
       <r>  -1.0544  1.0000</r>
       <r>  -0.9558  1.0000</r>
       <r>  -0.9552  1.0000</r>
       <r>  -0.8009  1.0000</r>
       <r>  -0.7598  1.0000</r>
       <r>  -0.5462  0.9973</r>
       <r>  -0.4068  0.9994</r>
       <r>   0.7991  0.0000</r>
       <r>   2.3560  0.0000</r>
       <r>   4.3483  0.0000</r>
       <r>   5.8705  0.0000</r>
       <r>   6.5718  0.0000</r>
       <r>   7.2847  0.0000</r>
       <r>   8.5619  0.0000</r>
      </set>
      <set comment="kpoint 14">
       <r>  -4.3110  1.0000</r>
       <r>  -4.0801  1.0000</r>
       <r>  -3.8787  1.0000</r>
       <r>  -3.8209  1.0000</r>
       <r>  -3.7051  1.0000</r>
       <r>  -3.5997  1.0000</r>
       <r>  -3.5030  1.0000</r>
       <r>  -3.3332  1.0000</r>
       <r>  -3.1459  1.0000</r>
       <r>  -2.9209  1.0000</r>
       <r>  -2.5473  1.0000</r>
       <r>  -2.0433  1.0000</r>
       <r>  -1.9319  1.0000</r>
       <r>  -1.3263  1.0000</r>
       <r>  -1.2679  1.0000</r>
       <r>  -1.1928  1.0000</r>
       <r>  -1.1596  1.0000</r>
       <r>  -1.0890  1.0000</r>
       <r>  -1.0338  1.0000</r>
       <r>  -0.9262  1.0000</r>
       <r>  -0.7738  1.0000</r>
       <r>  -0.6456  0.9996</r>
       <r>  -0.6267  0.9993</r>
       <r>  -0.6095  0.9991</r>
       <r>  -0.4744  0.9951</r>
       <r>   1.2127  0.0000</r>
       <r>   2.4838  0.0000</r>
       <r>   3.6146  0.0000</r>
       <r>   4.1648  0.0000</r>
       <r>   4.8515  0.0000</r>
       <r>   6.4053  0.0000</r>
       <r>   6.8551  0.0000</r>
       <r>   8.6708  0.0000</r>
      </set>
      <set comment="kpoint 15">
       <r>  -4.4151  1.0000</r>
       <r>  -4.2960  1.0000</r>
       <r>  -3.9840  1.0000</r>
       <r>  -3.9572  1.0000</r>
       <r>  -3.9347  1.0000</r>
       <r>  -3.6653  1.0000</r>
       <r>  -3.5221  1.0000</r>
       <r>  -3.4924  1.0000</r>
       <r>  -3.3929  1.0000</r>
       <r>  -2.7251  1.0000</r>
       <r>  -2.6882  1.0000</r>
       <r>  -1.7665  1.0000</r>
       <r>  -1.7255  1.0000</r>
       <r>  -1.1544  1.0000</r>
       <r>  -1.0489  1.0000</r>
       <r>  -0.8935  1.0000</r>
       <r>  -0.8403  1.0000</r>
       <r>  -0.7541  1.0000</r>
       <r>  -0.7104  0.9999</r>
       <r>  -0.6344  0.9994</r>
       <r>  -0.6196  0.9992</r>
       <r>  -0.5521  0.9976</r>
       <r>  -0.5141  0.9962</r>
       <r>  -0.3630  1.0111</r>
       <r>  -0.3186  1.0305</r>
       <r>   2.3770  0.0000</r>
       <r>   3.6107  0.0000</r>
       <r>   4.0034  0.0000</r>
       <r>   5.3181  0.0000</r>
       <r>   6.0438  0.0000</r>
       <r>   7.6278  0.0000</r>
       <r>   8.2344  0.0000</r>
       <r>   9.3234  0.0000</r>
      </set>
     </set>
     <set comment="spin 2">
      <set comment="kpoint 1">
       <r>  -8.5463  1.0000</r>
       <r>  -7.3531  1.0000</r>
       <r>  -5.6493  1.0000</r>
       <r>  -4.3463  1.0000</r>
       <r>  -4.1753  1.0000</r>
       <r>  -3.5010  1.0000</r>
       <r>  -3.1208  1.0000</r>
       <r>  -2.5337  1.0000</r>
       <r>  -2.0449  1.0000</r>
       <r>  -1.8071  1.0000</r>
       <r>  -1.6219  1.0000</r>
       <r>  -1.6219  1.0000</r>
       <r>  -1.2681  1.0000</r>
       <r>  -1.2158  1.0000</r>
       <r>  -1.2158  1.0000</r>
       <r>  -0.9647  1.0000</r>
       <r>  -0.9314  1.0000</r>
       <r>  -0.7602  1.0000</r>
       <r>  -0.6460  0.9996</r>
       <r>  -0.5987  0.9989</r>
       <r>  -0.5987  0.9989</r>
       <r>  -0.4479  0.9954</r>
       <r>  -0.1864  0.9934</r>
       <r>  -0.0210  0.2835</r>
       <r>  -0.0210  0.2835</r>
       <r>   0.0886 -0.0346</r>
       <r>   0.1240 -0.0515</r>
       <r>   0.2459 -0.0078</r>
       <r>   0.2459 -0.0078</r>
       <r>   0.6236  0.0000</r>
       <r>   1.9231  0.0000</r>
       <r>   4.7626  0.0000</r>
       <r>   5.8939  0.0000</r>
      </set>
      <set comment="kpoint 2">
       <r>  -8.2335  1.0000</r>
       <r>  -7.0579  1.0000</r>
       <r>  -5.3875  1.0000</r>
       <r>  -4.1266  1.0000</r>
       <r>  -3.9898  1.0000</r>
       <r>  -3.4055  1.0000</r>
       <r>  -3.0425  1.0000</r>
       <r>  -2.4887  1.0000</r>
       <r>  -2.0385  1.0000</r>
       <r>  -1.7344  1.0000</r>
       <r>  -1.6543  1.0000</r>
       <r>  -1.5812  1.0000</r>
       <r>  -1.5348  1.0000</r>
       <r>  -1.3747  1.0000</r>
       <r>  -1.2593  1.0000</r>
       <r>  -0.9260  1.0000</r>
       <r>  -0.8844  1.0000</r>
       <r>  -0.8144  1.0000</r>
       <r>  -0.7383  1.0000</r>
       <r>  -0.6834  0.9998</r>
       <r>  -0.5376  0.9970</r>
       <r>  -0.3928  1.0022</r>
       <r>  -0.3521  1.0153</r>
       <r>  -0.3370  1.0218</r>
       <r>  -0.0167  0.2633</r>
       <r>   0.0011  0.1848</r>
       <r>   0.0189  0.1170</r>
       <r>   0.1112 -0.0489</r>
       <r>   0.2570 -0.0045</r>
       <r>   1.3779  0.0000</r>
       <r>   2.7352  0.0000</r>
       <r>   5.0612  0.0000</r>
       <r>   6.2357  0.0000</r>
      </set>
      <set comment="kpoint 3">
       <r>  -7.3348  1.0000</r>
       <r>  -6.2379  1.0000</r>
       <r>  -4.7389  1.0000</r>
       <r>  -3.6585  1.0000</r>
       <r>  -3.5296  1.0000</r>
       <r>  -3.1650  1.0000</r>
       <r>  -2.7854  1.0000</r>
       <r>  -2.3038  1.0000</r>
       <r>  -2.0934  1.0000</r>
       <r>  -1.7686  1.0000</r>
       <r>  -1.6860  1.0000</r>
       <r>  -1.6308  1.0000</r>
       <r>  -1.6042  1.0000</r>
       <r>  -1.5042  1.0000</r>
       <r>  -1.3929  1.0000</r>
       <r>  -1.1912  1.0000</r>
       <r>  -1.0914  1.0000</r>
       <r>  -1.0632  1.0000</r>
       <r>  -0.8846  1.0000</r>
       <r>  -0.6539  0.9996</r>
       <r>  -0.5930  0.9987</r>
       <r>  -0.5752  0.9983</r>
       <r>  -0.4302  0.9965</r>
       <r>  -0.4085  0.9991</r>
       <r>  -0.1555  0.9154</r>
       <r>   0.0042  0.1723</r>
       <r>   0.1820 -0.0352</r>
       <r>   0.1963 -0.0284</r>
       <r>   0.7384  0.0000</r>
       <r>   2.5388  0.0000</r>
       <r>   4.2029  0.0000</r>
       <r>   5.9344  0.0000</r>
       <r>   7.2516  0.0000</r>
      </set>
      <set comment="kpoint 4">
       <r>  -5.9986  1.0000</r>
       <r>  -5.1601  1.0000</r>
       <r>  -4.1893  1.0000</r>
       <r>  -3.4704  1.0000</r>
       <r>  -3.1356  1.0000</r>
       <r>  -2.8575  1.0000</r>
       <r>  -2.3243  1.0000</r>
       <r>  -2.1533  1.0000</r>
       <r>  -1.9001  1.0000</r>
       <r>  -1.8565  1.0000</r>
       <r>  -1.7377  1.0000</r>
       <r>  -1.5708  1.0000</r>
       <r>  -1.5623  1.0000</r>
       <r>  -1.5357  1.0000</r>
       <r>  -1.4821  1.0000</r>
       <r>  -1.2987  1.0000</r>
       <r>  -1.2521  1.0000</r>
       <r>  -1.2127  1.0000</r>
       <r>  -1.1661  1.0000</r>
       <r>  -0.7514  1.0000</r>
       <r>  -0.5532  0.9976</r>
       <r>  -0.3048  1.0371</r>
       <r>  -0.1728  0.9636</r>
       <r>  -0.1581  0.9233</r>
       <r>  -0.0283  0.3188</r>
       <r>   0.0344  0.0675</r>
       <r>   0.0828 -0.0285</r>
       <r>   0.1703 -0.0406</r>
       <r>   1.5919  0.0000</r>
       <r>   3.6650  0.0000</r>
       <r>   5.5706  0.0000</r>
       <r>   5.6061  0.0000</r>
       <r>   7.1121  0.0000</r>
      </set>
      <set comment="kpoint 5">
       <r>  -4.6285  1.0000</r>
       <r>  -4.4075  1.0000</r>
       <r>  -4.0520  1.0000</r>
       <r>  -3.5574  1.0000</r>
       <r>  -3.2833  1.0000</r>
       <r>  -2.3892  1.0000</r>
       <r>  -2.1886  1.0000</r>
       <r>  -2.0116  1.0000</r>
       <r>  -1.9514  1.0000</r>
       <r>  -1.7947  1.0000</r>
       <r>  -1.6923  1.0000</r>
       <r>  -1.6839  1.0000</r>
       <r>  -1.6641  1.0000</r>
       <r>  -1.5758  1.0000</r>
       <r>  -1.5639  1.0000</r>
       <r>  -1.3478  1.0000</r>
       <r>  -1.2441  1.0000</r>
       <r>  -0.8943  1.0000</r>
       <r>  -0.8222  1.0000</r>
       <r>  -0.4814  0.9952</r>
       <r>  -0.2488  1.0513</r>
       <r>  -0.1656  0.9450</r>
       <r>  -0.0561  0.4614</r>
       <r>   0.0774 -0.0221</r>
       <r>   0.1331 -0.0514</r>
       <r>   0.2003 -0.0265</r>
       <r>   0.4304  0.0023</r>
       <r>   0.7396  0.0000</r>
       <r>   1.7352  0.0000</r>
       <r>   2.3177  0.0000</r>
       <r>   4.7548  0.0000</r>
       <r>   4.8972  0.0000</r>
       <r>   7.0282  0.0000</r>
      </set>
      <set comment="kpoint 6">
       <r>  -7.9251  1.0000</r>
       <r>  -6.7663  1.0000</r>
       <r>  -5.1282  1.0000</r>
       <r>  -3.9110  1.0000</r>
       <r>  -3.8132  1.0000</r>
       <r>  -3.3020  1.0000</r>
       <r>  -2.9674  1.0000</r>
       <r>  -2.4624  1.0000</r>
       <r>  -2.0840  1.0000</r>
       <r>  -1.6677  1.0000</r>
       <r>  -1.6506  1.0000</r>
       <r>  -1.6283  1.0000</r>
       <r>  -1.6081  1.0000</r>
       <r>  -1.5288  1.0000</r>
       <r>  -1.2443  1.0000</r>
       <r>  -1.0501  1.0000</r>
       <r>  -0.9079  1.0000</r>
       <r>  -0.8552  1.0000</r>
       <r>  -0.7913  1.0000</r>
       <r>  -0.7207  0.9999</r>
       <r>  -0.6387  0.9995</r>
       <r>  -0.5627  0.9979</r>
       <r>  -0.4805  0.9952</r>
       <r>  -0.2125  1.0317</r>
       <r>  -0.1501  0.8978</r>
       <r>  -0.0526  0.4430</r>
       <r>  -0.0187  0.2726</r>
       <r>   0.2338 -0.0120</r>
       <r>   0.4870  0.0009</r>
       <r>   1.8793  0.0000</r>
       <r>   3.3027  0.0000</r>
       <r>   5.3587  0.0000</r>
       <r>   6.5764  0.0000</r>
      </set>
      <set comment="kpoint 7">
       <r>  -7.0431  1.0000</r>
       <r>  -5.9600  1.0000</r>
       <r>  -4.4915  1.0000</r>
       <r>  -3.4595  1.0000</r>
       <r>  -3.3814  1.0000</r>
       <r>  -3.0500  1.0000</r>
       <r>  -2.7361  1.0000</r>
       <r>  -2.3535  1.0000</r>
       <r>  -2.2280  1.0000</r>
       <r>  -1.9833  1.0000</r>
       <r>  -1.7650  1.0000</r>
       <r>  -1.5564  1.0000</r>
       <r>  -1.5213  1.0000</r>
       <r>  -1.4969  1.0000</r>
       <r>  -1.3691  1.0000</r>
       <r>  -1.3044  1.0000</r>
       <r>  -1.1592  1.0000</r>
       <r>  -1.0508  1.0000</r>
       <r>  -0.8516  1.0000</r>
       <r>  -0.8239  1.0000</r>
       <r>  -0.6822  0.9998</r>
       <r>  -0.5080  0.9959</r>
       <r>  -0.4548  0.9952</r>
       <r>  -0.3116  1.0339</r>
       <r>  -0.2767  1.0482</r>
       <r>   0.0002  0.1889</r>
       <r>   0.1893 -0.0318</r>
       <r>   0.2021 -0.0256</r>
       <r>   1.1953  0.0000</r>
       <r>   2.9280  0.0000</r>
       <r>   4.5912  0.0000</r>
       <r>   6.2308  0.0000</r>
       <r>   7.5857  0.0000</r>
      </set>
      <set comment="kpoint 8">
       <r>  -5.7465  1.0000</r>
       <r>  -4.9129  1.0000</r>
       <r>  -3.9759  1.0000</r>
       <r>  -3.2897  1.0000</r>
       <r>  -2.9421  1.0000</r>
       <r>  -2.9149  1.0000</r>
       <r>  -2.4078  1.0000</r>
       <r>  -2.3404  1.0000</r>
       <r>  -2.0890  1.0000</r>
       <r>  -2.0254  1.0000</r>
       <r>  -1.8158  1.0000</r>
       <r>  -1.7071  1.0000</r>
       <r>  -1.6510  1.0000</r>
       <r>  -1.4327  1.0000</r>
       <r>  -1.4013  1.0000</r>
       <r>  -1.3095  1.0000</r>
       <r>  -1.2451  1.0000</r>
       <r>  -1.1231  1.0000</r>
       <r>  -1.0428  1.0000</r>
       <r>  -0.6882  0.9998</r>
       <r>  -0.4705  0.9951</r>
       <r>  -0.4558  0.9952</r>
       <r>  -0.2292  1.0449</r>
       <r>  -0.1698  0.9559</r>
       <r>  -0.0743  0.5575</r>
       <r>   0.0729 -0.0158</r>
       <r>   0.1202 -0.0510</r>
       <r>   0.6009  0.0001</r>
       <r>   2.0858  0.0000</r>
       <r>   4.0760  0.0000</r>
       <r>   5.8068  0.0000</r>
       <r>   5.9590  0.0000</r>
       <r>   7.2932  0.0000</r>
      </set>
      <set comment="kpoint 9">
       <r>  -4.4367  1.0000</r>
       <r>  -4.1940  1.0000</r>
       <r>  -3.8703  1.0000</r>
       <r>  -3.4242  1.0000</r>
       <r>  -3.1822  1.0000</r>
       <r>  -2.5209  1.0000</r>
       <r>  -2.3739  1.0000</r>
       <r>  -2.1856  1.0000</r>
       <r>  -2.0833  1.0000</r>
       <r>  -2.0313  1.0000</r>
       <r>  -1.8547  1.0000</r>
       <r>  -1.7827  1.0000</r>
       <r>  -1.6893  1.0000</r>
       <r>  -1.5017  1.0000</r>
       <r>  -1.4033  1.0000</r>
       <r>  -1.3163  1.0000</r>
       <r>  -1.1729  1.0000</r>
       <r>  -0.9615  1.0000</r>
       <r>  -0.8394  1.0000</r>
       <r>  -0.5265  0.9966</r>
       <r>  -0.3127  1.0334</r>
       <r>  -0.2569  1.0516</r>
       <r>  -0.0511  0.4355</r>
       <r>  -0.0452  0.4045</r>
       <r>   0.1077 -0.0475</r>
       <r>   0.7954  0.0000</r>
       <r>   0.8358  0.0000</r>
       <r>   1.3039  0.0000</r>
       <r>   2.3212  0.0000</r>
       <r>   2.5742  0.0000</r>
       <r>   4.9616  0.0000</r>
       <r>   5.1545  0.0000</r>
       <r>   7.1801  0.0000</r>
      </set>
      <set comment="kpoint 10">
       <r>  -6.2273  1.0000</r>
       <r>  -5.2088  1.0000</r>
       <r>  -3.9022  1.0000</r>
       <r>  -3.1986  1.0000</r>
       <r>  -2.9832  1.0000</r>
       <r>  -2.7154  1.0000</r>
       <r>  -2.5799  1.0000</r>
       <r>  -2.5281  1.0000</r>
       <r>  -2.4025  1.0000</r>
       <r>  -2.3976  1.0000</r>
       <r>  -1.9655  1.0000</r>
       <r>  -1.7684  1.0000</r>
       <r>  -1.6022  1.0000</r>
       <r>  -1.2973  1.0000</r>
       <r>  -1.2633  1.0000</r>
       <r>  -1.1626  1.0000</r>
       <r>  -1.1069  1.0000</r>
       <r>  -1.0055  1.0000</r>
       <r>  -0.9505  1.0000</r>
       <r>  -0.8414  1.0000</r>
       <r>  -0.6552  0.9996</r>
       <r>  -0.6421  0.9995</r>
       <r>  -0.6298  0.9994</r>
       <r>  -0.3762  1.0067</r>
       <r>  -0.1049  0.7126</r>
       <r>  -0.0274  0.3142</r>
       <r>   0.2112 -0.0214</r>
       <r>   0.7207  0.0000</r>
       <r>   2.0368  0.0000</r>
       <r>   3.8967  0.0000</r>
       <r>   5.6433  0.0000</r>
       <r>   7.1051  0.0000</r>
       <r>   8.5698  0.0000</r>
      </set>
      <set comment="kpoint 11">
       <r>  -5.1018  1.0000</r>
       <r>  -4.2896  1.0000</r>
       <r>  -3.4832  1.0000</r>
       <r>  -3.1468  1.0000</r>
       <r>  -3.0005  1.0000</r>
       <r>  -2.7431  1.0000</r>
       <r>  -2.6117  1.0000</r>
       <r>  -2.5229  1.0000</r>
       <r>  -2.3124  1.0000</r>
       <r>  -2.2868  1.0000</r>
       <r>  -2.1092  1.0000</r>
       <r>  -1.9396  1.0000</r>
       <r>  -1.7163  1.0000</r>
       <r>  -1.1682  1.0000</r>
       <r>  -1.1358  1.0000</r>
       <r>  -1.1040  1.0000</r>
       <r>  -1.0416  1.0000</r>
       <r>  -0.9667  1.0000</r>
       <r>  -0.8696  1.0000</r>
       <r>  -0.5839  0.9985</r>
       <r>  -0.5294  0.9967</r>
       <r>  -0.4210  0.9974</r>
       <r>  -0.3005  1.0391</r>
       <r>  -0.2082  1.0270</r>
       <r>   0.0030  0.1774</r>
       <r>   0.1542 -0.0469</r>
       <r>   0.4292  0.0023</r>
       <r>   1.4939  0.0000</r>
       <r>   3.1482  0.0000</r>
       <r>   5.1437  0.0000</r>
       <r>   6.3412  0.0000</r>
       <r>   6.9466  0.0000</r>
       <r>   7.7759  0.0000</r>
      </set>
      <set comment="kpoint 12">
       <r>  -4.0843  1.0000</r>
       <r>  -3.6931  1.0000</r>
       <r>  -3.5150  1.0000</r>
       <r>  -3.3255  1.0000</r>
       <r>  -3.2214  1.0000</r>
       <r>  -2.8167  1.0000</r>
       <r>  -2.7119  1.0000</r>
       <r>  -2.5713  1.0000</r>
       <r>  -2.3232  1.0000</r>
       <r>  -2.1954  1.0000</r>
       <r>  -1.9483  1.0000</r>
       <r>  -1.8542  1.0000</r>
       <r>  -1.7499  1.0000</r>
       <r>  -1.1532  1.0000</r>
       <r>  -1.1450  1.0000</r>
       <r>  -1.1173  1.0000</r>
       <r>  -1.0360  1.0000</r>
       <r>  -0.8945  1.0000</r>
       <r>  -0.6363  0.9995</r>
       <r>  -0.4069  0.9994</r>
       <r>  -0.3034  1.0378</r>
       <r>  -0.2182  1.0371</r>
       <r>   0.0076  0.1591</r>
       <r>   0.1077 -0.0475</r>
       <r>   0.1270 -0.0516</r>
       <r>   1.0482  0.0000</r>
       <r>   1.6782  0.0000</r>
       <r>   2.7563  0.0000</r>
       <r>   3.1950  0.0000</r>
       <r>   3.6244  0.0000</r>
       <r>   5.5467  0.0000</r>
       <r>   5.8969  0.0000</r>
       <r>   7.7096  0.0000</r>
      </set>
      <set comment="kpoint 13">
       <r>  -4.4211  1.0000</r>
       <r>  -3.6801  1.0000</r>
       <r>  -3.4404  1.0000</r>
       <r>  -3.1425  1.0000</r>
       <r>  -3.0981  1.0000</r>
       <r>  -3.0581  1.0000</r>
       <r>  -2.8755  1.0000</r>
       <r>  -2.7046  1.0000</r>
       <r>  -2.4514  1.0000</r>
       <r>  -2.1997  1.0000</r>
       <r>  -2.1939  1.0000</r>
       <r>  -1.7666  1.0000</r>
       <r>  -1.6772  1.0000</r>
       <r>  -0.7914  1.0000</r>
       <r>  -0.7648  1.0000</r>
       <r>  -0.7320  0.9999</r>
       <r>  -0.6927  0.9999</r>
       <r>  -0.6813  0.9998</r>
       <r>  -0.5283  0.9967</r>
       <r>  -0.3852  1.0041</r>
       <r>  -0.3652  1.0103</r>
       <r>  -0.2811  1.0468</r>
       <r>  -0.2589  1.0515</r>
       <r>  -0.0129  0.2457</r>
       <r>   0.0454  0.0379</r>
       <r>   0.2213 -0.0169</r>
       <r>   1.2178  0.0000</r>
       <r>   2.6783  0.0000</r>
       <r>   4.5605  0.0000</r>
       <r>   6.0347  0.0000</r>
       <r>   6.6968  0.0000</r>
       <r>   7.4541  0.0000</r>
       <r>   8.6390  0.0000</r>
      </set>
      <set comment="kpoint 14">
       <r>  -4.0072  1.0000</r>
       <r>  -3.7271  1.0000</r>
       <r>  -3.4394  1.0000</r>
       <r>  -3.2952  1.0000</r>
       <r>  -3.2241  1.0000</r>
       <r>  -3.0848  1.0000</r>
       <r>  -3.0447  1.0000</r>
       <r>  -2.7836  1.0000</r>
       <r>  -2.6538  1.0000</r>
       <r>  -2.3646  1.0000</r>
       <r>  -1.9807  1.0000</r>
       <r>  -1.4975  1.0000</r>
       <r>  -1.3456  1.0000</r>
       <r>  -0.7458  1.0000</r>
       <r>  -0.7106  0.9999</r>
       <r>  -0.5484  0.9974</r>
       <r>  -0.5032  0.9958</r>
       <r>  -0.4317  0.9963</r>
       <r>  -0.4150  0.9982</r>
       <r>  -0.2845  1.0457</r>
       <r>  -0.1650  0.9432</r>
       <r>  -0.0099  0.2321</r>
       <r>   0.0240  0.0997</r>
       <r>   0.1251 -0.0515</r>
       <r>   0.2735 -0.0006</r>
       <r>   1.5098  0.0000</r>
       <r>   2.7626  0.0000</r>
       <r>   3.8193  0.0000</r>
       <r>   4.3840  0.0000</r>
       <r>   5.0460  0.0000</r>
       <r>   6.5708  0.0000</r>
       <r>   7.0305  0.0000</r>
       <r>   8.7778  0.0000</r>
      </set>
      <set comment="kpoint 15">
       <r>  -4.0570  1.0000</r>
       <r>  -3.9562  1.0000</r>
       <r>  -3.5722  1.0000</r>
       <r>  -3.4106  1.0000</r>
       <r>  -3.4025  1.0000</r>
       <r>  -3.2059  1.0000</r>
       <r>  -2.9811  1.0000</r>
       <r>  -2.9227  1.0000</r>
       <r>  -2.9028  1.0000</r>
       <r>  -2.1529  1.0000</r>
       <r>  -2.1110  1.0000</r>
       <r>  -1.1441  1.0000</r>
       <r>  -1.1000  1.0000</r>
       <r>  -0.5816  0.9984</r>
       <r>  -0.5168  0.9963</r>
       <r>  -0.2377  1.0487</r>
       <r>  -0.1682  0.9519</r>
       <r>  -0.1199  0.7813</r>
       <r>  -0.0960  0.6689</r>
       <r>  -0.0127  0.2448</r>
       <r>   0.0440  0.0416</r>
       <r>   0.1440 -0.0498</r>
       <r>   0.1894 -0.0317</r>
       <r>   0.3992  0.0034</r>
       <r>   0.4580  0.0015</r>
       <r>   2.4916  0.0000</r>
       <r>   3.7047  0.0000</r>
       <r>   4.1748  0.0000</r>
       <r>   5.4470  0.0000</r>
       <r>   6.2097  0.0000</r>
       <r>   7.7613  0.0000</r>
       <r>   8.3657  0.0000</r>
       <r>   9.5411  0.0000</r>
      </set>
     </set>
    </set>
   </array>
  </eigenvalues>
 </calculation>
 <structure name="finalpos" >
  <crystal>
   <varray name="basis" >
    <v>       1.76500000       1.76500000       0.00000000 </v>
    <v>      -1.76500000       1.76500000       0.00000000 </v>
    <v>       0.00000000       0.00000000      17.65000000 </v>
   </varray>
   <i name="volume">    109.96744250</i>
   <varray name="rec_basis" >
    <v>       0.28328612       0.28328612       0.00000000 </v>
    <v>      -0.28328612       0.28328612       0.00000000 </v>
    <v>       0.00000000       0.00000000       0.05665722 </v>
   </varray>
  </crystal>
  <varray name="positions" >
   <v>       0.00000000       0.00000000       0.00000000 </v>
   <v>       0.50000000       0.50000000       0.10000000 </v>
   <v>       0.00000000       0.00000000       0.20000000 </v>
   <v>       0.50000000       0.50000000       0.30039442 </v>
   <v>       0.00000000       0.00000000       0.39589016 </v>
  </varray>
  <varray name="selective"  type="logical" >
   <v type="logical" >  F F F</v>
   <v type="logical" >  F F F</v>
   <v type="logical" >  F F F</v>
   <v type="logical" >  T T T</v>
   <v type="logical" >  T T T</v>
  </varray>
  <nose>
   <v>      -3.00000000       0.00000000       0.00010000       0.00010000 </v>
  </nose>
 </structure>
</modeling>
