clean (100) Ni surface                  
 3.53
     0.500000    0.500000    0.000000
    -0.500000    0.500000    0.000000
     0.000000    0.000000    5.000000
   5
Direct
  0.000000  0.000000  0.000000
  0.500000  0.500000  0.100000
  0.000000  0.000000  0.200000
  0.500000  0.500000  0.300394
  0.000000  0.000000  0.395890
 
   18   18  140
  1535.1      1413.3      1099.8      716.17      383.35      167.78      70.047      43.800      35.373      32.881    
  35.373      43.800      70.047      167.78      383.35      716.17      1099.8      1413.3      1413.3      1301.2    
  1012.1      657.88      350.84      153.46      65.798      42.678      34.524      32.122      34.524      42.678    
  65.798      153.46      350.84      657.88      1012.1      1301.2      1099.8      1012.1      785.42      507.13    
  267.56      117.88      55.814      39.520      32.197      30.059      32.197      39.520      55.814      117.88    
  267.56      507.13      785.42      1012.1      716.17      657.88      507.13      323.18      168.79      78.625    
  45.738      34.938      28.956      27.225      28.956      34.938      45.738      78.625      168.79      323.18    
  507.13      657.88      383.35      350.84      267.56      168.79      91.250      51.656      37.952      29.865    
  25.491      24.229      25.491      29.865      37.952      51.656      91.250      168.79      267.56      350.84    
  167.78      153.46      117.88      78.625      51.656      39.075      30.860      25.260      22.369      21.530    
  22.369      25.260      30.860      39.075      51.656      78.625      117.88      153.46      70.047      65.798    
  55.814      45.738      37.952      30.860      25.297      21.733      19.901      19.355      19.901      21.733    
  25.297      30.860      37.952      45.738      55.814      65.798      43.800      42.678      39.520      34.937    
  29.865      25.260      21.733      19.422      18.168      17.775      18.168      19.422      21.733      25.260    
  29.865      34.937      39.520      42.678      35.373      34.524      32.197      28.956      25.491      22.369    
  19.901      18.168      17.147      16.810      17.147      18.168      19.901      22.369      25.491      28.956    
  32.197      34.524      32.881      32.122      30.059      27.225      24.229      21.530      19.355      17.775    
  16.810      16.484      16.810      17.775      19.355      21.530      24.229      27.225      30.059      32.122    
  35.373      34.524      32.197      28.956      25.491      22.369      19.901      18.168      17.147      16.810    
  17.147      18.168      19.901      22.369      25.491      28.956      32.197      34.524      43.800      42.678    
  39.520      34.937      29.865      25.260      21.733      19.422      18.168      17.775      18.168      19.422    
  21.733      25.260      29.865      34.937      39.520      42.678      70.047      65.798      55.814      45.738    
  37.952      30.860      25.297      21.733      19.901      19.355      19.901      21.733      25.297      30.860    
  37.952      45.738      55.814      65.798      167.78      153.46      117.88      78.625      51.656      39.075    
  30.860      25.260      22.369      21.530      22.369      25.260      30.860      39.075      51.656      78.625    
  117.88      153.46      383.35      350.84      267.56      168.79      91.250      51.656      37.952      29.865    
  25.491      24.229      25.491      29.865      37.952      51.656      91.250      168.79      267.56      350.84    
  716.17      657.88      507.13      323.18      168.79      78.625      45.738      34.938      28.956      27.225    
  28.956      34.938      45.738      78.625      168.79      323.18      507.13      657.88      1099.8      1012.1    
  785.42      507.13      267.56      117.88      55.814      39.520      32.197      30.059      32.197      39.520    
  55.814      117.88      267.56      507.13      785.42      1012.1      1413.3      1301.2      1012.1      657.88    
  350.84      153.46      65.798      42.678      34.524      32.122      34.524      42.678      65.798      153.46    
  350.84      657.88      1012.1      1301.2      1433.5      1319.0      1024.3      664.71      354.31      155.24    
  66.694      43.307      35.204      32.819      35.204      43.307      66.694      155.24      354.31      664.71    
  1024.3      1319.0      1319.0      1213.6      942.01      610.19      324.14      142.18      62.947      42.273    
  34.436      32.138      34.436      42.273      62.947      142.18      324.14      610.19      942.01      1213.6    
  1024.3      942.01      729.47      469.47      247.11      109.86      54.183      39.352      32.325      30.281    
  32.325      39.352      54.183      109.86      247.11      469.47      729.47      942.01      664.71      610.19    
  469.47      298.56      156.34      74.554      45.339      35.099      29.374      27.720      29.374      35.099    
  45.339      74.554      156.34      298.56      469.47      610.19      354.31      324.14      247.11      156.34    
  85.931      50.655      38.141      30.378      26.202      24.999      26.202      30.378      38.141      50.655    
  85.931      156.34      247.11      324.14      155.24      142.18      109.86      74.554      50.655      39.293    
  31.418      26.079      23.331      22.533      23.331      26.079      31.418      39.293      50.655      74.554    
  109.86      142.18      66.694      62.947      54.183      45.339      38.141      31.418      26.151      22.781    
  21.052      20.537      21.052      22.781      26.151      31.418      38.141      45.339      54.183      62.947    
  43.307      42.273      39.352      35.099      30.378      26.079      22.781      20.620      19.448      19.082    
  19.448      20.620      22.781      26.079      30.378      35.099      39.352      42.273      35.204      34.436    
  32.325      29.374      26.202      23.331      21.052      19.448      18.503      18.191      18.503      19.448    
  21.052      23.331      26.202      29.374      32.325      34.436      32.819      32.138      30.281      27.720    
  24.999      22.533      20.537      19.082      18.191      17.889      18.191      19.082      20.537      22.533    
  24.999      27.720      30.281      32.138      35.204      34.436      32.325      29.374      26.202      23.331    
  21.052      19.448      18.503      18.191      18.503      19.448      21.052      23.331      26.202      29.374    
  32.325      34.436      43.307      42.273      39.352      35.099      30.378      26.079      22.781      20.620    
  19.448      19.082      19.448      20.620      22.781      26.079      30.378      35.099      39.352      42.273    
  66.694      62.947      54.183      45.339      38.141      31.418      26.151      22.781      21.052      20.537    
  21.052      22.781      26.151      31.418      38.141      45.339      54.183      62.947      155.24      142.18    
  109.86      74.554      50.655      39.293      31.418      26.079      23.331      22.533      23.331      26.079    
  31.418      39.293      50.655      74.554      109.86      142.18      354.31      324.14      247.11      156.34    
  85.931      50.655      38.141      30.378      26.202      24.999      26.202      30.378      38.141      50.655    
  85.931      156.34      247.11      324.14      664.71      610.19      469.47      298.56      156.34      74.554    
  45.339      35.099      29.374      27.720      29.374      35.099      45.339      74.554      156.34      298.56    
  469.47      610.19      1024.3      942.01      729.47      469.47      247.11      109.86      54.183      39.352    
  32.325      30.281      32.325      39.352      54.183      109.86      247.11      469.47      729.47      942.01    
  1319.0      1213.6      942.01      610.19      324.14      142.18      62.947      42.273      34.436      32.138    
  34.436      42.273      62.947      142.18      324.14      610.19      942.01      1213.6      1172.2      1076.3    
  830.46      533.05      280.67      124.00      58.404      41.315      33.995      31.860      33.995      41.315    
  58.404      124.00      280.67      533.05      830.46      1076.3      1076.3      988.12      761.99      488.24    
  256.49      114.04      55.790      40.428      33.367      31.312      33.367      40.428      55.790      114.04    
  256.49      488.24      761.99      988.12      830.46      761.99      586.09      373.39      195.36      89.768    
  49.715      37.921      31.632      29.812      31.632      37.921      49.715      89.768      195.36      373.39    
  586.09      761.99      533.05      488.24      373.39      236.01      124.86      64.052      43.361      34.270    
  29.185      27.719      29.185      34.270      43.361      64.052      124.86      236.01      373.39      488.24    
  280.67      256.49      195.36      124.86      72.254      47.278      37.154      30.206      26.519      25.455    
  26.519      30.206      37.154      47.278      72.254      124.86      195.36      256.49      124.00      114.04    
  89.768      64.052      47.278      38.278      31.207      26.483      24.058      23.351      24.058      26.483    
  31.207      38.278      47.278      64.052      89.768      114.04      58.404      55.790      49.715      43.361    
  37.154      31.207      26.569      23.595      22.056      21.593      22.056      23.595      26.569      31.207    
  37.154      43.361      49.715      55.790      41.315      40.428      37.921      34.270      30.206      26.483    
  23.595      21.670      20.606      20.268      20.606      21.670      23.595      26.483      30.206      34.270    
  37.921      40.428      33.995      33.367      31.632      29.185      26.519      24.058      22.056      20.606    
  19.729      19.435      19.729      20.606      22.056      24.058      26.519      29.185      31.632      33.367    
  31.859      31.312      29.812      27.719      25.455      23.351      21.593      20.268      19.435      19.148    
  19.435      20.268      21.593      23.351      25.455      27.719      29.812      31.312      33.995      33.367    
  31.632      29.185      26.519      24.058      22.056      20.606      19.729      19.435      19.729      20.606    
  22.056      24.058      26.519      29.185      31.632      33.367      41.315      40.428      37.921      34.270    
  30.206      26.483      23.595      21.670      20.606      20.268      20.606      21.670      23.595      26.483    
  30.206      34.270      37.921      40.428      58.404      55.790      49.715      43.361      37.154      31.207    
  26.569      23.595      22.056      21.593      22.056      23.595      26.569      31.207      37.154      43.361    
  49.715      55.790      124.00      114.04      89.768      64.052      47.278      38.278      31.207      26.483    
  24.058      23.351      24.058      26.483      31.207      38.278      47.278      64.052      89.768      114.04    
  280.67      256.49      195.36      124.86      72.254      47.278      37.154      30.206      26.519      25.455    
  26.519      30.206      37.154      47.278      72.254      124.86      195.36      256.49      533.05      488.24    
  373.39      236.01      124.86      64.052      43.361      34.270      29.185      27.719      29.185      34.270    
  43.361      64.052      124.86      236.01      373.39      488.24      830.46      761.99      586.09      373.39    
  195.36      89.768      49.715      37.921      31.632      29.812      31.632      37.921      49.715      89.768    
  195.36      373.39      586.09      761.99      1076.3      988.12      761.99      488.24      256.49      114.04    
  55.790      40.428      33.367      31.312      33.367      40.428      55.790      114.04      256.49      488.24    
  761.99      988.12      835.53      764.33      583.20      367.86      191.23      88.371      49.819      38.368    
  32.224      30.449      32.224      38.368      49.819      88.371      191.23      367.86      583.20      764.33    
  764.33      699.09      533.07      335.86      174.82      82.257      48.399      37.674      31.769      30.064    
  31.769      37.674      48.399      82.257      174.82      335.86      533.07      699.09      583.20      533.07    
  405.61      254.94      134.09      67.744      44.976      35.715      30.503      29.000      30.503      35.715    
  44.976      67.744      134.09      254.94      405.61      533.07      367.86      335.86      254.94      161.01    
  89.054      53.132      40.565      32.867      28.695      27.492      28.695      32.867      40.565      53.132    
  89.054      161.01      254.94      335.86      191.23      174.82      134.09      89.054      57.771      43.630    
  35.447      29.696      26.696      25.826      26.696      29.696      35.447      43.630      57.771      89.054    
  134.09      174.82      88.371      82.257      67.744      53.132      43.630      36.489      30.620      26.782    
  24.818      24.242      24.818      26.782      30.620      36.489      43.630      53.132      67.744      82.257    
  49.819      48.399      44.976      40.565      35.447      30.620      26.893      24.505      23.261      22.885    
  23.261      24.505      26.893      30.620      35.447      40.565      44.976      48.399      38.368      37.674    
  35.715      32.867      29.696      26.782      24.505      22.971      22.112      21.838      22.112      22.971    
  24.505      26.782      29.696      32.867      35.715      37.674      32.224      31.769      30.503      28.695    
  26.696      24.818      23.261      22.112      21.406      21.167      21.406      22.112      23.261      24.818    
  26.696      28.695      30.503      31.769      30.449      30.064      29.000      27.492      25.826      24.242    
  22.885      21.838      21.167      20.934      21.167      21.838      22.885      24.242      25.826      27.492    
  29.000      30.064      32.224      31.769      30.503      28.695      26.696      24.818      23.261      22.112    
  21.406      21.167      21.406      22.112      23.261      24.818      26.696      28.695      30.503      31.769    
  38.368      37.674      35.715      32.867      29.696      26.782      24.505      22.971      22.112      21.838    
  22.112      22.971      24.505      26.782      29.696      32.867      35.715      37.674      49.819      48.399    
  44.976      40.565      35.447      30.620      26.893      24.505      23.261      22.885      23.261      24.505    
  26.893      30.620      35.447      40.565      44.976      48.399      88.371      82.257      67.744      53.132    
  43.630      36.489      30.620      26.782      24.818      24.242      24.818      26.782      30.620      36.489    
  43.630      53.132      67.744      82.257      191.23      174.82      134.09      89.054      57.771      43.630    
  35.447      29.696      26.696      25.826      26.696      29.696      35.447      43.630      57.771      89.054    
  134.09      174.82      367.86      335.86      254.94      161.01      89.054      53.132      40.565      32.867    
  28.695      27.492      28.695      32.867      40.565      53.132      89.054      161.01      254.94      335.86    
  583.20      533.07      405.61      254.94      134.09      67.744      44.976      35.715      30.503      29.000    
  30.503      35.715      44.976      67.744      134.09      254.94      405.61      533.07      764.33      699.09    
  533.07      335.86      174.82      82.257      48.399      37.674      31.769      30.064      31.769      37.674    
  48.399      82.257      174.82      335.86      533.07      699.09      512.39      466.32      350.73      217.63    
  114.90      61.388      43.606      35.098      30.379      29.024      30.379      35.098      43.606      61.388    
  114.90      217.63      350.73      466.32      466.32      424.37      319.19      198.41      105.92      58.587    
  42.842      34.622      30.100      28.802      30.100      34.622      42.842      58.587      105.92      198.41    
  319.19      424.37      350.73      319.19      240.39      150.92      84.360      52.162      40.640      33.284    
  29.326      28.187      29.326      33.284      40.640      52.162      84.360      150.92      240.39      319.19    
  217.63      198.41      150.92      98.618      62.135      45.773      37.335      31.359      28.229      27.325    
  28.229      31.359      37.335      45.773      62.135      98.618      150.92      198.41      114.90      105.92    
  84.360      62.135      48.045      40.065      33.580      29.255      27.044      26.402      27.044      29.255    
  33.580      40.065      48.045      62.135      84.360      105.92      61.388      58.587      52.162      45.773    
  40.065      34.513      30.150      27.383      25.991      25.584      25.991      27.383      30.150      34.513    
  40.065      45.773      52.162      58.587      43.606      42.842      40.640      37.335      33.580      30.150    
  27.584      25.994      25.194      24.958      25.194      25.994      27.584      30.150      33.580      37.335    
  40.640      42.842      35.098      34.622      33.284      31.359      29.255      27.383      25.994      25.122    
  24.671      24.534      24.671      25.122      25.994      27.383      29.255      31.359      33.284      34.622    
  30.379      30.100      29.326      28.229      27.044      25.991      25.194      24.671      24.384      24.293    
  24.384      24.671      25.194      25.991      27.044      28.229      29.326      30.100      29.024      28.802    
  28.187      27.325      26.402      25.584      24.958      24.534      24.293      24.214      24.293      24.534    
  24.958      25.584      26.402      27.325      28.187      28.802      30.379      30.100      29.326      28.229    
  27.044      25.991      25.194      24.671      24.384      24.293      24.384      24.671      25.194      25.991    
  27.044      28.229      29.326      30.100      35.098      34.622      33.284      31.359      29.255      27.383    
  25.994      25.122      24.671      24.534      24.671      25.122      25.994      27.383      29.255      31.359    
  33.284      34.622      43.606      42.842      40.640      37.335      33.580      30.150      27.584      25.994    
  25.194      24.958      25.194      25.994      27.584      30.150      33.580      37.335      40.640      42.842    
  61.388      58.587      52.162      45.773      40.065      34.513      30.150      27.383      25.991      25.584    
  25.991      27.383      30.150      34.513      40.065      45.773      52.162      58.587      114.90      105.92    
  84.360      62.135      48.045      40.065      33.580      29.255      27.044      26.402      27.044      29.255    
  33.580      40.065      48.045      62.135      84.360      105.92      217.63      198.41      150.92      98.618    
  62.135      45.773      37.335      31.359      28.229      27.325      28.229      31.359      37.335      45.773    
  62.135      98.618      150.92      198.41      350.73      319.19      240.39      150.92      84.360      52.162    
  40.640      33.284      29.326      28.187      29.326      33.284      40.640      52.162      84.360      150.92    
  240.39      319.19      466.32      424.37      319.19      198.41      105.92      58.587      42.842      34.622    
  30.100      28.802      30.100      34.622      42.842      58.587      105.92      198.41      319.19      424.37    
  264.77      240.02      179.42      113.46      67.677      47.305      38.341      32.087      28.817      27.882    
  28.817      32.087      38.341      47.305      67.677      113.46      179.42      240.02      240.02      217.74    
  163.34      104.48      64.143      46.377      37.829      31.830      28.706      27.811      28.706      31.830    
  37.829      46.377      64.143      104.48      163.34      217.74      179.42      163.34      124.39      83.172    
  56.066      44.019      36.391      31.131      28.422      27.643      28.422      31.131      36.391      44.019    
  56.066      83.172      124.39      163.34      113.46      104.48      83.172      61.659      48.300      40.590    
  34.330      30.196      28.100      27.496      28.100      30.196      34.330      40.590      48.300      61.659    
  83.172      104.48      67.677      64.143      56.066      48.300      42.301      36.620      32.139      29.318    
  27.923      27.524      27.923      29.318      32.139      36.620      42.301      48.300      56.066      64.143    
  47.305      46.377      44.019      40.590      36.620      32.985      30.321      28.755      28.029      27.830    
  28.029      28.755      30.321      32.985      36.620      40.590      44.019      46.377      38.341      37.829    
  36.391      34.330      32.139      30.321      29.154      28.600      28.424      28.395      28.424      28.600    
  29.154      30.321      32.139      34.330      36.391      37.829      32.087      31.830      31.131      30.196    
  29.318      28.755      28.600      28.743      28.961      29.059      28.961      28.743      28.600      28.755    
  29.318      30.196      31.131      31.830      28.817      28.706      28.422      28.100      27.923      28.029    
  28.424      28.961      29.415      29.591      29.415      28.961      28.424      28.029      27.923      28.100    
  28.422      28.706      27.882      27.811      27.643      27.496      27.524      27.830      28.395      29.059    
  29.591      29.794      29.591      29.059      28.395      27.830      27.524      27.496      27.643      27.811    
  28.817      28.706      28.422      28.100      27.923      28.029      28.424      28.961      29.415      29.591    
  29.415      28.961      28.424      28.029      27.923      28.100      28.422      28.706      32.087      31.830    
  31.131      30.196      29.318      28.755      28.600      28.743      28.961      29.059      28.961      28.743    
  28.600      28.755      29.318      30.196      31.131      31.830      38.341      37.829      36.391      34.330    
  32.139      30.321      29.154      28.600      28.424      28.395      28.424      28.600      29.154      30.321    
  32.139      34.330      36.391      37.829      47.305      46.377      44.019      40.590      36.620      32.985    
  30.321      28.755      28.029      27.830      28.029      28.755      30.321      32.985      36.620      40.590    
  44.019      46.377      67.677      64.143      56.066      48.300      42.301      36.620      32.139      29.318    
  27.923      27.524      27.923      29.318      32.139      36.620      42.301      48.300      56.066      64.143    
  113.46      104.48      83.172      61.659      48.300      40.590      34.330      30.196      28.100      27.496    
  28.100      30.196      34.330      40.590      48.300      61.659      83.172      104.48      179.42      163.34    
  124.39      83.172      56.066      44.019      36.391      31.131      28.422      27.643      28.422      31.131    
  36.391      44.019      56.066      83.172      124.39      163.34      240.02      217.74      163.34      104.48    
  64.143      46.377      37.829      31.830      28.706      27.811      28.706      31.830      37.829      46.377    
  64.143      104.48      163.34      217.74      117.38      107.48      84.297      61.444      47.653      39.896    
  33.740      29.733      27.728      27.155      27.728      29.733      33.740      39.896      47.653      61.444    
  84.297      107.48      107.48      98.776      78.495      58.691      46.742      39.400      33.504      29.690    
  27.785      27.240      27.785      29.690      33.504      39.400      46.742      58.691      78.495      98.776    
  84.297      78.495      65.176      52.506      44.451      38.014      32.891      29.639      28.028      27.568    
  28.028      29.639      32.891      38.014      44.451      52.506      65.176      78.495      61.444      58.691    
  52.506      46.523      41.160      36.064      32.172      29.790      28.644      28.322      28.644      29.790    
  32.172      36.064      41.160      46.523      52.506      58.691      47.653      46.742      44.451      41.160    
  37.419      34.072      31.703      30.388      29.830      29.689      29.830      30.388      31.703      34.072    
  37.419      41.160      44.451      46.742      39.896      39.400      38.014      36.064      34.072      32.551    
  31.749      31.551      31.633      31.698      31.633      31.551      31.749      32.551      34.072      36.064    
  38.014      39.400      33.740      33.504      32.891      32.172      31.703      31.749      32.316      33.140    
  33.838      34.108      33.838      33.140      32.316      31.749      31.703      32.172      32.891      33.504    
  29.733      29.690      29.639      29.790      30.388      31.551      33.140      34.772      35.988      36.436    
  35.988      34.772      33.140      31.551      30.388      29.790      29.639      29.690      27.728      27.785    
  28.028      28.644      29.830      31.633      33.838      35.988      37.552      38.123      37.552      35.988    
  33.838      31.633      29.830      28.644      28.028      27.785      27.155      27.240      27.568      28.322    
  29.689      31.698      34.108      36.436      38.123      38.738      38.123      36.436      34.108      31.698    
  29.689      28.322      27.568      27.240      27.728      27.785      28.028      28.644      29.830      31.633    
  33.838      35.988      37.552      38.123      37.552      35.988      33.838      31.633      29.830      28.644    
  28.028      27.785      29.733      29.690      29.639      29.790      30.388      31.551      33.140      34.772    
  35.988      36.436      35.988      34.772      33.140      31.551      30.388      29.790      29.639      29.690    
  33.740      33.504      32.891      32.172      31.703      31.749      32.316      33.140      33.838      34.108    
  33.838      33.140      32.316      31.749      31.703      32.172      32.891      33.504      39.896      39.400    
  38.014      36.064      34.072      32.551      31.749      31.551      31.633      31.698      31.633      31.551    
  31.749      32.551      34.072      36.064      38.014      39.400      47.653      46.742      44.451      41.160    
  37.419      34.072      31.703      30.388      29.830      29.689      29.830      30.388      31.703      34.072    
  37.419      41.160      44.451      46.742      61.444      58.691      52.506      46.523      41.160      36.064    
  32.172      29.790      28.644      28.322      28.644      29.790      32.172      36.064      41.160      46.523    
  52.506      58.691      84.297      78.495      65.176      52.506      44.451      38.014      32.891      29.639    
  28.028      27.568      28.028      29.639      32.891      38.014      44.451      52.506      65.176      78.495    
  107.48      98.776      78.495      58.691      46.742      39.400      33.504      29.690      27.785      27.240    
  27.785      29.690      33.504      39.400      46.742      58.691      78.495      98.776      56.703      54.345    
  49.097      43.844      38.653      33.898      30.354      28.204      27.167      26.874      27.167      28.204    
  30.354      33.898      38.653      43.844      49.097      54.345      54.345      52.348      47.879      43.162    
  38.221      33.720      30.388      28.383      27.423      27.154      27.423      28.383      30.388      33.720    
  38.221      43.162      47.879      52.348      49.097      47.879      44.993      41.233      37.041      33.300    
  30.608      29.047      28.334      28.141      28.334      29.047      30.608      33.300      37.041      41.233    
  44.993      47.879      43.844      43.162      41.233      38.449      35.459      32.946      31.304      30.499    
  30.225      30.174      30.225      30.499      31.304      32.946      35.459      38.449      41.233      43.162    
  38.653      38.221      37.041      35.459      33.975      33.030      32.771      32.998      33.343      33.496    
  33.343      32.998      32.771      33.030      33.975      35.459      37.041      38.221      33.898      33.720    
  33.300      32.946      33.030      33.770      35.051      36.465      37.538      37.934      37.538      36.465    
  35.051      33.770      33.030      32.946      33.300      33.720      30.354      30.388      30.608      31.304    
  32.771      35.051      37.790      40.360      42.152      42.789      42.152      40.360      37.790      35.051    
  32.771      31.304      30.608      30.388      28.204      28.383      29.047      30.499      32.998      36.465    
  40.360      43.875      46.610      47.778      46.610      43.875      40.360      36.465      32.998      30.499    
  29.047      28.383      27.167      27.423      28.334      30.225      33.343      37.538      42.152      46.610    
  50.932      52.888      50.932      46.610      42.152      37.538      33.343      30.225      28.334      27.423    
  26.874      27.154      28.141      30.174      33.496      37.934      42.789      47.778      52.888      55.214    
  52.888      47.778      42.789      37.934      33.496      30.174      28.141      27.154      27.167      27.423    