clean (100) Ni surface                  
 3.53
     0.500000    0.500000    0.000000
    -0.500000    0.500000    0.000000
     0.000000    0.000000    5.000000
   5
Direct
  0.000000  0.000000  0.000000
  0.500000  0.500000  0.100000
  0.000000  0.000000  0.200000
  0.500000  0.500000  0.300394
  0.000000  0.000000  0.395890
 
   18   18  140
 0.15351064649E+04 0.14133495804E+04 0.10997987261E+04 0.71617147352E+03 0.38335142621E+03
 0.16778242137E+03 0.70046970017E+02 0.43799899759E+02 0.35373074157E+02 0.32881325042E+02
 0.35373074157E+02 0.43799899759E+02 0.70046970017E+02 0.16778242137E+03 0.38335142621E+03
 0.71617147352E+03 0.10997987261E+04 0.14133495804E+04 0.14133495771E+04 0.13012289999E+04
 0.10121191703E+04 0.65788037595E+03 0.35083670244E+03 0.15346078539E+03 0.65798440904E+02
 0.42677717493E+02 0.34524353603E+02 0.32122320517E+02 0.34524353603E+02 0.42677717493E+02
 0.65798440904E+02 0.15346078539E+03 0.35083670244E+03 0.65788037595E+03 0.10121191703E+04
 0.13012289999E+04 0.10997987143E+04 0.10121191618E+04 0.78541533756E+03 0.50713126181E+03
 0.26755932827E+03 0.11787848157E+03 0.55814305949E+02 0.39520095917E+02 0.32196558217E+02
 0.30058845037E+02 0.32196558217E+02 0.39520095917E+02 0.55814305949E+02 0.11787848157E+03
 0.26755932827E+03 0.50713126181E+03 0.78541533756E+03 0.10121191618E+04 0.71617145150E+03
 0.65788035724E+03 0.50713125159E+03 0.32317864832E+03 0.16879026374E+03 0.78625493166E+02
 0.45738013997E+02 0.34937512260E+02 0.28955763086E+02 0.27225089835E+02 0.28955763086E+02
 0.34937512260E+02 0.45738013997E+02 0.78625493166E+02 0.16879026374E+03 0.32317864832E+03
 0.50713125159E+03 0.65788035724E+03 0.38335139556E+03 0.35083667509E+03 0.26755930941E+03
 0.16879025511E+03 0.91250026767E+02 0.51656037894E+02 0.37951659688E+02 0.29865383277E+02
 0.25491105385E+02 0.24229457610E+02 0.25491105385E+02 0.29865383277E+02 0.37951659688E+02
 0.51656037894E+02 0.91250026767E+02 0.16879025511E+03 0.26755930941E+03 0.35083667509E+03
 0.16778238529E+03 0.15346075262E+03 0.11787845728E+03 0.78625479108E+02 0.51656032467E+02
 0.39074723426E+02 0.30860297731E+02 0.25259670756E+02 0.22369492815E+02 0.21529698595E+02
 0.22369492815E+02 0.25259670756E+02 0.30860297731E+02 0.39074723426E+02 0.51656032467E+02
 0.78625479108E+02 0.11787845728E+03 0.15346075262E+03 0.70046931390E+02 0.65798405589E+02
 0.55814279115E+02 0.45737997391E+02 0.37951651713E+02 0.30860295183E+02 0.25297178508E+02
 0.21732644547E+02 0.19900972818E+02 0.19355071022E+02 0.19900972818E+02 0.21732644547E+02
 0.25297178508E+02 0.30860295183E+02 0.37951651713E+02 0.45737997391E+02 0.55814279115E+02
 0.65798405589E+02 0.43799860224E+02 0.42677681270E+02 0.39520068176E+02 0.34937494746E+02
 0.29865374395E+02 0.25259667301E+02 0.21732643640E+02 0.19422280835E+02 0.18167801386E+02
 0.17775061739E+02 0.18167801386E+02 0.19422280835E+02 0.21732643640E+02 0.25259667301E+02
 0.29865374395E+02 0.34937494746E+02 0.39520068176E+02 0.42677681270E+02 0.35373034336E+02
 0.34524317093E+02 0.32196530189E+02 0.28955745286E+02 0.25491096216E+02 0.22369489072E+02
 0.19900971624E+02 0.18167801100E+02 0.17147240223E+02 0.16810005737E+02 0.17147240223E+02
 0.18167801100E+02 0.19900971624E+02 0.22369489072E+02 0.25491096216E+02 0.28955745286E+02
 0.32196530189E+02 0.34524317093E+02 0.32881285147E+02 0.32122283933E+02 0.30058816935E+02
 0.27225071960E+02 0.24229448366E+02 0.21529694779E+02 0.19355069753E+02 0.17775061379E+02
 0.16810005663E+02 0.16483742481E+02 0.16810005663E+02 0.17775061379E+02 0.19355069753E+02
 0.21529694779E+02 0.24229448366E+02 0.27225071960E+02 0.30058816935E+02 0.32122283933E+02
 0.35373034336E+02 0.34524317093E+02 0.32196530189E+02 0.28955745286E+02 0.25491096216E+02
 0.22369489072E+02 0.19900971624E+02 0.18167801100E+02 0.17147240223E+02 0.16810005737E+02
 0.17147240223E+02 0.18167801100E+02 0.19900971624E+02 0.22369489072E+02 0.25491096216E+02
 0.28955745286E+02 0.32196530189E+02 0.34524317093E+02 0.43799860224E+02 0.42677681270E+02
 0.39520068176E+02 0.34937494746E+02 0.29865374395E+02 0.25259667301E+02 0.21732643640E+02
 0.19422280835E+02 0.18167801386E+02 0.17775061739E+02 0.18167801386E+02 0.19422280835E+02
 0.21732643640E+02 0.25259667301E+02 0.29865374395E+02 0.34937494746E+02 0.39520068176E+02
 0.42677681270E+02 0.70046931390E+02 0.65798405589E+02 0.55814279115E+02 0.45737997391E+02
 0.37951651713E+02 0.30860295183E+02 0.25297178508E+02 0.21732644547E+02 0.19900972818E+02
 0.19355071022E+02 0.19900972818E+02 0.21732644547E+02 0.25297178508E+02 0.30860295183E+02
 0.37951651713E+02 0.45737997391E+02 0.55814279115E+02 0.65798405589E+02 0.16778238529E+03
 0.15346075262E+03 0.11787845728E+03 0.78625479108E+02 0.51656032467E+02 0.39074723426E+02
 0.30860297731E+02 0.25259670756E+02 0.22369492815E+02 0.21529698595E+02 0.22369492815E+02
 0.25259670756E+02 0.30860297731E+02 0.39074723426E+02 0.51656032467E+02 0.78625479108E+02
 0.11787845728E+03 0.15346075262E+03 0.38335139556E+03 0.35083667509E+03 0.26755930941E+03
 0.16879025511E+03 0.91250026767E+02 0.51656037894E+02 0.37951659688E+02 0.29865383277E+02
 0.25491105385E+02 0.24229457610E+02 0.25491105385E+02 0.29865383277E+02 0.37951659688E+02
 0.51656037894E+02 0.91250026767E+02 0.16879025511E+03 0.26755930941E+03 0.35083667509E+03
 0.71617145150E+03 0.65788035724E+03 0.50713125159E+03 0.32317864832E+03 0.16879026374E+03
 0.78625493166E+02 0.45738013997E+02 0.34937512260E+02 0.28955763086E+02 0.27225089835E+02
 0.28955763086E+02 0.34937512260E+02 0.45738013997E+02 0.78625493166E+02 0.16879026374E+03
 0.32317864832E+03 0.50713125159E+03 0.65788035724E+03 0.10997987143E+04 0.10121191618E+04
 0.78541533756E+03 0.50713126181E+03 0.26755932827E+03 0.11787848157E+03 0.55814305949E+02
 0.39520095917E+02 0.32196558217E+02 0.30058845037E+02 0.32196558217E+02 0.39520095917E+02
 0.55814305949E+02 0.11787848157E+03 0.26755932827E+03 0.50713126181E+03 0.78541533756E+03
 0.10121191618E+04 0.14133495771E+04 0.13012289999E+04 0.10121191703E+04 0.65788037595E+03
 0.35083670244E+03 0.15346078539E+03 0.65798440904E+02 0.42677717493E+02 0.34524353603E+02
 0.32122320517E+02 0.34524353603E+02 0.42677717493E+02 0.65798440904E+02 0.15346078539E+03
 0.35083670244E+03 0.65788037595E+03 0.10121191703E+04 0.13012289999E+04 0.14335475290E+04
 0.13190027166E+04 0.10243304550E+04 0.66471124134E+03 0.35430977961E+03 0.15524461157E+03
 0.66693898048E+02 0.43307352728E+02 0.35204195638E+02 0.32819399142E+02 0.35204195638E+02
 0.43307352728E+02 0.66693898048E+02 0.15524461157E+03 0.35430977961E+03 0.66471124134E+03
 0.10243304550E+04 0.13190027166E+04 0.13190027135E+04 0.12135673309E+04 0.94200782929E+03
 0.61018790401E+03 0.32414255222E+03 0.14217753183E+03 0.62946886134E+02 0.42273114678E+02
 0.34436347808E+02 0.32138014021E+02 0.34436347808E+02 0.42273114678E+02 0.62946886134E+02
 0.14217753183E+03 0.32414255222E+03 0.61018790401E+03 0.94200782929E+03 0.12135673309E+04
 0.10243304439E+04 0.94200782136E+03 0.72947183231E+03 0.46947494639E+03 0.24710687396E+03
 0.10985797805E+03 0.54182888215E+02 0.39351585841E+02 0.32325254292E+02 0.30281197814E+02
 0.32325254292E+02 0.39351585841E+02 0.54182888215E+02 0.10985797805E+03 0.24710687396E+03
 0.46947494639E+03 0.72947183231E+03 0.94200782136E+03 0.66471122076E+03 0.61018788653E+03
 0.46947493685E+03 0.29856334425E+03 0.15634042823E+03 0.74553753091E+02 0.45339418975E+02
 0.35099141437E+02 0.29373645839E+02 0.27720371740E+02 0.29373645839E+02 0.35099141437E+02
 0.45339418975E+02 0.74553753091E+02 0.15634042823E+03 0.29856334425E+03 0.46947493685E+03
 0.61018788653E+03 0.35430975100E+03 0.32414252671E+03 0.24710685639E+03 0.15634042020E+03
 0.85931093775E+02 0.50655227750E+02 0.38141163911E+02 0.30377516698E+02 0.26202080406E+02
 0.24998742203E+02 0.26202080406E+02 0.30377516698E+02 0.38141163911E+02 0.50655227750E+02
 0.85931093775E+02 0.15634042020E+03 0.24710685639E+03 0.32414252671E+03 0.15524457793E+03
 0.14217750129E+03 0.10985795544E+03 0.74553740026E+02 0.50655222717E+02 0.39293146714E+02
 0.31417914234E+02 0.26078653914E+02 0.23330728611E+02 0.22532522750E+02 0.23330728611E+02
 0.26078653914E+02 0.31417914234E+02 0.39293146714E+02 0.50655222717E+02 0.74553740026E+02
 0.10985795544E+03 0.14217750129E+03 0.66693862041E+02 0.62946853227E+02 0.54182863239E+02
 0.45339403544E+02 0.38141156511E+02 0.31417911868E+02 0.26150999452E+02 0.22781177538E+02
 0.21051755443E+02 0.20536707698E+02 0.21051755443E+02 0.22781177538E+02 0.26150999452E+02
 0.31417911868E+02 0.38141156511E+02 0.45339403544E+02 0.54182863239E+02 0.62946853227E+02
 0.43307315857E+02 0.42273080906E+02 0.39351560001E+02 0.35099125141E+02 0.30377508434E+02
 0.26078650683E+02 0.22781176673E+02 0.20620485382E+02 0.19448243270E+02 0.19081608790E+02
 0.19448243270E+02 0.20620485382E+02 0.22781176673E+02 0.26078650683E+02 0.30377508434E+02
 0.35099125141E+02 0.39351560001E+02 0.42273080906E+02 0.35204158467E+02 0.34436313736E+02
 0.32325228153E+02 0.29373629244E+02 0.26202071843E+02 0.23330725080E+02 0.21051754278E+02
 0.19448242971E+02 0.18503211322E+02 0.18190867593E+02 0.18503211322E+02 0.19448242971E+02
 0.21051754278E+02 0.23330725080E+02 0.26202071843E+02 0.29373629244E+02 0.32325228153E+02
 0.34436313736E+02 0.32819361886E+02 0.32137979865E+02 0.30281171589E+02 0.27720355061E+02
 0.24998733555E+02 0.22532519135E+02 0.20536706449E+02 0.19081608406E+02 0.18190867508E+02
 0.17889395154E+02 0.18190867508E+02 0.19081608406E+02 0.20536706449E+02 0.22532519135E+02
 0.24998733555E+02 0.27720355061E+02 0.30281171589E+02 0.32137979865E+02 0.35204158467E+02
 0.34436313736E+02 0.32325228153E+02 0.29373629244E+02 0.26202071843E+02 0.23330725080E+02
 0.21051754278E+02 0.19448242971E+02 0.18503211322E+02 0.18190867593E+02 0.18503211322E+02
 0.19448242971E+02 0.21051754278E+02 0.23330725080E+02 0.26202071843E+02 0.29373629244E+02
 0.32325228153E+02 0.34436313736E+02 0.43307315857E+02 0.42273080906E+02 0.39351560001E+02
 0.35099125141E+02 0.30377508434E+02 0.26078650683E+02 0.22781176673E+02 0.20620485382E+02
 0.19448243270E+02 0.19081608790E+02 0.19448243270E+02 0.20620485382E+02 0.22781176673E+02
 0.26078650683E+02 0.30377508434E+02 0.35099125141E+02 0.39351560001E+02 0.42273080906E+02
 0.66693862041E+02 0.62946853227E+02 0.54182863239E+02 0.45339403544E+02 0.38141156511E+02
 0.31417911868E+02 0.26150999452E+02 0.22781177538E+02 0.21051755443E+02 0.20536707698E+02
 0.21051755443E+02 0.22781177538E+02 0.26150999452E+02 0.31417911868E+02 0.38141156511E+02
 0.45339403544E+02 0.54182863239E+02 0.62946853227E+02 0.15524457793E+03 0.14217750129E+03
 0.10985795544E+03 0.74553740026E+02 0.50655222717E+02 0.39293146714E+02 0.31417914234E+02
 0.26078653914E+02 0.23330728611E+02 0.22532522750E+02 0.23330728611E+02 0.26078653914E+02
 0.31417914234E+02 0.39293146714E+02 0.50655222717E+02 0.74553740026E+02 0.10985795544E+03
 0.14217750129E+03 0.35430975100E+03 0.32414252671E+03 0.24710685639E+03 0.15634042020E+03
 0.85931093775E+02 0.50655227750E+02 0.38141163911E+02 0.30377516698E+02 0.26202080406E+02
 0.24998742203E+02 0.26202080406E+02 0.30377516698E+02 0.38141163911E+02 0.50655227750E+02
 0.85931093775E+02 0.15634042020E+03 0.24710685639E+03 0.32414252671E+03 0.66471122076E+03
 0.61018788653E+03 0.46947493685E+03 0.29856334425E+03 0.15634042823E+03 0.74553753091E+02
 0.45339418975E+02 0.35099141437E+02 0.29373645839E+02 0.27720371740E+02 0.29373645839E+02
 0.35099141437E+02 0.45339418975E+02 0.74553753091E+02 0.15634042823E+03 0.29856334425E+03
 0.46947493685E+03 0.61018788653E+03 0.10243304439E+04 0.94200782136E+03 0.72947183231E+03
 0.46947494639E+03 0.24710687396E+03 0.10985797805E+03 0.54182888215E+02 0.39351585841E+02
 0.32325254292E+02 0.30281197814E+02 0.32325254292E+02 0.39351585841E+02 0.54182888215E+02
 0.10985797805E+03 0.24710687396E+03 0.46947494639E+03 0.72947183231E+03 0.94200782136E+03
 0.13190027135E+04 0.12135673309E+04 0.94200782929E+03 0.61018790401E+03 0.32414255222E+03
 0.14217753183E+03 0.62946886134E+02 0.42273114678E+02 0.34436347808E+02 0.32138014021E+02
 0.34436347808E+02 0.42273114678E+02 0.62946886134E+02 0.14217753183E+03 0.32414255222E+03
 0.61018790401E+03 0.94200782929E+03 0.12135673309E+04 0.11721635401E+04 0.10762696159E+04
 0.83046262947E+03 0.53304757655E+03 0.28067111232E+03 0.12399504843E+03 0.58403743154E+02
 0.41315394998E+02 0.33995088318E+02 0.31859502783E+02 0.33995088318E+02 0.41315394998E+02
 0.58403743154E+02 0.12399504843E+03 0.28067111232E+03 0.53304757655E+03 0.83046262947E+03
 0.10762696159E+04 0.10762696133E+04 0.98812333664E+03 0.76198875881E+03 0.48823669870E+03
 0.25649457332E+03 0.11403967284E+03 0.55790164984E+02 0.40427655252E+02 0.33366956028E+02
 0.31312032012E+02 0.33366956028E+02 0.40427655252E+02 0.55790164984E+02 0.11403967284E+03
 0.25649457332E+03 0.48823669870E+03 0.76198875881E+03 0.98812333664E+03 0.83046262040E+03
 0.76198875230E+03 0.58609494293E+03 0.37338531795E+03 0.19535831954E+03 0.89768446891E+02
 0.49715410594E+02 0.37920596000E+02 0.31632251648E+02 0.29811773168E+02 0.31632251648E+02
 0.37920596000E+02 0.49715410594E+02 0.89768446891E+02 0.19535831954E+03 0.37338531795E+03
 0.58609494293E+03 0.76198875230E+03 0.53304755970E+03 0.48823668441E+03 0.37338531017E+03
 0.23601168666E+03 0.12486452553E+03 0.64052226863E+02 0.43360568329E+02 0.34269957040E+02
 0.29185083650E+02 0.27718936848E+02 0.29185083650E+02 0.34269957040E+02 0.43360568329E+02
 0.64052226863E+02 0.12486452553E+03 0.23601168666E+03 0.37338531017E+03 0.48823668441E+03
 0.28067108901E+03 0.25649455257E+03 0.19535830530E+03 0.12486451907E+03 0.72253954602E+02
 0.47277866903E+02 0.37154067902E+02 0.30206387531E+02 0.26519133119E+02 0.25454582890E+02
 0.26519133119E+02 0.30206387531E+02 0.37154067902E+02 0.47277866903E+02 0.72253954602E+02
 0.12486451907E+03 0.19535830530E+03 0.25649455257E+03 0.12399502113E+03 0.11403964809E+03
 0.89768428656E+02 0.64052216406E+02 0.47277862913E+02 0.38277746363E+02 0.31206651281E+02
 0.26483490957E+02 0.24058440419E+02 0.23350607624E+02 0.24058440419E+02 0.26483490957E+02
 0.31206651281E+02 0.38277746363E+02 0.47277862913E+02 0.64052216406E+02 0.89768428656E+02
 0.11403964809E+03 0.58403713994E+02 0.55790138377E+02 0.49715390498E+02 0.43360556012E+02
 0.37154062052E+02 0.31206649421E+02 0.26568913778E+02 0.23594772150E+02 0.22055604099E+02
 0.21593320206E+02 0.22055604099E+02 0.23594772150E+02 0.26568913778E+02 0.31206649421E+02
 0.37154062052E+02 0.43360556012E+02 0.49715390498E+02 0.55790138377E+02 0.41315365118E+02
 0.40427627925E+02 0.37920575185E+02 0.34269944003E+02 0.30206380961E+02 0.26483488378E+02
 0.23594771430E+02 0.21669644758E+02 0.20605511080E+02 0.20268432301E+02 0.20605511080E+02
 0.21669644758E+02 0.23594771430E+02 0.26483488378E+02 0.30206380961E+02 0.34269944003E+02
 0.37920575185E+02 0.40427627925E+02 0.33995058134E+02 0.33366928397E+02 0.31632230528E+02
 0.29185070309E+02 0.26519126245E+02 0.24058437535E+02 0.22055603075E+02 0.20605510776E+02
 0.19728744785E+02 0.19434573365E+02 0.19728744785E+02 0.20605510776E+02 0.22055603075E+02
 0.24058437535E+02 0.26519126245E+02 0.29185070309E+02 0.31632230528E+02 0.33366928397E+02
 0.31859472497E+02 0.31312004279E+02 0.29811751946E+02 0.27718923405E+02 0.25454575915E+02
 0.23350604638E+02 0.21593319080E+02 0.20268431895E+02 0.19434573263E+02 0.19147984470E+02
 0.19434573263E+02 0.20268431895E+02 0.21593319080E+02 0.23350604638E+02 0.25454575915E+02
 0.27718923405E+02 0.29811751946E+02 0.31312004279E+02 0.33995058134E+02 0.33366928397E+02
 0.31632230528E+02 0.29185070309E+02 0.26519126245E+02 0.24058437535E+02 0.22055603075E+02
 0.20605510776E+02 0.19728744785E+02 0.19434573365E+02 0.19728744785E+02 0.20605510776E+02
 0.22055603075E+02 0.24058437535E+02 0.26519126245E+02 0.29185070309E+02 0.31632230528E+02
 0.33366928397E+02 0.41315365118E+02 0.40427627925E+02 0.37920575185E+02 0.34269944003E+02
 0.30206380961E+02 0.26483488378E+02 0.23594771430E+02 0.21669644758E+02 0.20605511080E+02
 0.20268432301E+02 0.20605511080E+02 0.21669644758E+02 0.23594771430E+02 0.26483488378E+02
 0.30206380961E+02 0.34269944003E+02 0.37920575185E+02 0.40427627925E+02 0.58403713994E+02
 0.55790138377E+02 0.49715390498E+02 0.43360556012E+02 0.37154062052E+02 0.31206649421E+02
 0.26568913778E+02 0.23594772150E+02 0.22055604099E+02 0.21593320206E+02 0.22055604099E+02
 0.23594772150E+02 0.26568913778E+02 0.31206649421E+02 0.37154062052E+02 0.43360556012E+02
 0.49715390498E+02 0.55790138377E+02 0.12399502113E+03 0.11403964809E+03 0.89768428656E+02
 0.64052216406E+02 0.47277862913E+02 0.38277746363E+02 0.31206651281E+02 0.26483490957E+02
 0.24058440419E+02 0.23350607624E+02 0.24058440419E+02 0.26483490957E+02 0.31206651281E+02
 0.38277746363E+02 0.47277862913E+02 0.64052216406E+02 0.89768428656E+02 0.11403964809E+03
 0.28067108901E+03 0.25649455257E+03 0.19535830530E+03 0.12486451907E+03 0.72253954602E+02
 0.47277866903E+02 0.37154067902E+02 0.30206387531E+02 0.26519133119E+02 0.25454582890E+02
 0.26519133119E+02 0.30206387531E+02 0.37154067902E+02 0.47277866903E+02 0.72253954602E+02
 0.12486451907E+03 0.19535830530E+03 0.25649455257E+03 0.53304755970E+03 0.48823668441E+03
 0.37338531017E+03 0.23601168666E+03 0.12486452553E+03 0.64052226863E+02 0.43360568329E+02
 0.34269957040E+02 0.29185083650E+02 0.27718936848E+02 0.29185083650E+02 0.34269957040E+02
 0.43360568329E+02 0.64052226863E+02 0.12486452553E+03 0.23601168666E+03 0.37338531017E+03
 0.48823668441E+03 0.83046262040E+03 0.76198875230E+03 0.58609494293E+03 0.37338531795E+03
 0.19535831954E+03 0.89768446891E+02 0.49715410594E+02 0.37920596000E+02 0.31632251648E+02
 0.29811773168E+02 0.31632251648E+02 0.37920596000E+02 0.49715410594E+02 0.89768446891E+02
 0.19535831954E+03 0.37338531795E+03 0.58609494293E+03 0.76198875230E+03 0.10762696133E+04
 0.98812333664E+03 0.76198875881E+03 0.48823669870E+03 0.25649457332E+03 0.11403967284E+03
 0.55790164984E+02 0.40427655252E+02 0.33366956028E+02 0.31312032012E+02 0.33366956028E+02
 0.40427655252E+02 0.55790164984E+02 0.11403967284E+03 0.25649457332E+03 0.48823669870E+03
 0.76198875881E+03 0.98812333664E+03 0.83552638947E+03 0.76432957808E+03 0.58319747034E+03
 0.36785650433E+03 0.19123327357E+03 0.88371499942E+02 0.49818992536E+02 0.38367740173E+02
 0.32224453981E+02 0.30449179610E+02 0.32224453981E+02 0.38367740173E+02 0.49818992536E+02
 0.88371499942E+02 0.19123327357E+03 0.36785650433E+03 0.58319747034E+03 0.76432957808E+03
 0.76432957625E+03 0.69908854721E+03 0.53307443423E+03 0.33585764216E+03 0.17482002597E+03
 0.82257288779E+02 0.48398785167E+02 0.37673565744E+02 0.31768923254E+02 0.30064098908E+02
 0.31768923254E+02 0.37673565744E+02 0.48398785167E+02 0.82257288779E+02 0.17482002597E+03
 0.33585764216E+03 0.53307443423E+03 0.69908854721E+03 0.58319746386E+03 0.53307442958E+03
 0.40560871561E+03 0.25493890030E+03 0.13409324888E+03 0.67744488649E+02 0.44976148869E+02
 0.35715239653E+02 0.30502600629E+02 0.28999834104E+02 0.30502600629E+02 0.35715239653E+02
 0.44976148869E+02 0.67744488649E+02 0.13409324888E+03 0.25493890030E+03 0.40560871561E+03
 0.53307442958E+03 0.36785649238E+03 0.33585763204E+03 0.25493889483E+03 0.16100727425E+03
 0.89054129506E+02 0.53131605906E+02 0.40565214970E+02 0.32866927353E+02 0.28695045839E+02
 0.27491866514E+02 0.28695045839E+02 0.32866927353E+02 0.40565214970E+02 0.53131605906E+02
 0.89054129506E+02 0.16100727425E+03 0.25493889483E+03 0.33585763204E+03 0.19123325718E+03
 0.17482001141E+03 0.13409323897E+03 0.89054125066E+02 0.57771229048E+02 0.43630253370E+02
 0.35447120095E+02 0.29695837553E+02 0.26695855084E+02 0.25826371649E+02 0.26695855084E+02
 0.29695837553E+02 0.35447120095E+02 0.43630253370E+02 0.57771229048E+02 0.89054125066E+02
 0.13409323897E+03 0.17482001141E+03 0.88371480907E+02 0.82257271577E+02 0.67744476091E+02
 0.53131598819E+02 0.43630250723E+02 0.36489272852E+02 0.30620191104E+02 0.26781875301E+02
 0.24818462375E+02 0.24241860590E+02 0.24818462375E+02 0.26781875301E+02 0.30620191104E+02
 0.36489272852E+02 0.43630250723E+02 0.53131598819E+02 0.67744476091E+02 0.82257271577E+02
 0.49818972299E+02 0.48398766763E+02 0.44976135109E+02 0.40565206680E+02 0.35447116245E+02
 0.30620189901E+02 0.26892866048E+02 0.24504975693E+02 0.23261408010E+02 0.22885181444E+02
 0.23261408010E+02 0.24504975693E+02 0.26892866048E+02 0.30620189901E+02 0.35447116245E+02
 0.40565206680E+02 0.44976135109E+02 0.48398766763E+02 0.38367719425E+02 0.37673546829E+02
 0.35715225383E+02 0.32866918553E+02 0.29695833194E+02 0.26781873588E+02 0.24504975183E+02
 0.22970809853E+02 0.22112292652E+02 0.21838074602E+02 0.22112292652E+02 0.22970809853E+02
 0.24504975183E+02 0.26781873588E+02 0.29695833194E+02 0.32866918553E+02 0.35715225383E+02
 0.37673546829E+02 0.32224432951E+02 0.31768904057E+02 0.30502586077E+02 0.28695036757E+02
 0.26695850442E+02 0.24818460380E+02 0.23261407218E+02 0.22112292369E+02 0.21406039128E+02
 0.21166811553E+02 0.21406039128E+02 0.22112292369E+02 0.23261407218E+02 0.24818460380E+02
 0.26695850442E+02 0.28695036757E+02 0.30502586077E+02 0.31768904057E+02 0.30449158470E+02
 0.30064079601E+02 0.28999819441E+02 0.27491857322E+02 0.25826366897E+02 0.24241858485E+02
 0.22885180541E+02 0.21838074209E+02 0.21166811443E+02 0.20933775880E+02 0.21166811443E+02
 0.21838074209E+02 0.22885180541E+02 0.24241858485E+02 0.25826366897E+02 0.27491857322E+02
 0.28999819441E+02 0.30064079601E+02 0.32224432951E+02 0.31768904057E+02 0.30502586077E+02
 0.28695036757E+02 0.26695850442E+02 0.24818460380E+02 0.23261407218E+02 0.22112292369E+02
 0.21406039128E+02 0.21166811553E+02 0.21406039128E+02 0.22112292369E+02 0.23261407218E+02
 0.24818460380E+02 0.26695850442E+02 0.28695036757E+02 0.30502586077E+02 0.31768904057E+02
 0.38367719425E+02 0.37673546829E+02 0.35715225383E+02 0.32866918553E+02 0.29695833194E+02
 0.26781873588E+02 0.24504975183E+02 0.22970809853E+02 0.22112292652E+02 0.21838074602E+02
 0.22112292652E+02 0.22970809853E+02 0.24504975183E+02 0.26781873588E+02 0.29695833194E+02
 0.32866918553E+02 0.35715225383E+02 0.37673546829E+02 0.49818972299E+02 0.48398766763E+02
 0.44976135109E+02 0.40565206680E+02 0.35447116245E+02 0.30620189901E+02 0.26892866048E+02
 0.24504975693E+02 0.23261408010E+02 0.22885181444E+02 0.23261408010E+02 0.24504975693E+02
 0.26892866048E+02 0.30620189901E+02 0.35447116245E+02 0.40565206680E+02 0.44976135109E+02
 0.48398766763E+02 0.88371480907E+02 0.82257271577E+02 0.67744476091E+02 0.53131598819E+02
 0.43630250723E+02 0.36489272852E+02 0.30620191104E+02 0.26781875301E+02 0.24818462375E+02
 0.24241860590E+02 0.24818462375E+02 0.26781875301E+02 0.30620191104E+02 0.36489272852E+02
 0.43630250723E+02 0.53131598819E+02 0.67744476091E+02 0.82257271577E+02 0.19123325718E+03
 0.17482001141E+03 0.13409323897E+03 0.89054125066E+02 0.57771229048E+02 0.43630253370E+02
 0.35447120095E+02 0.29695837553E+02 0.26695855084E+02 0.25826371649E+02 0.26695855084E+02
 0.29695837553E+02 0.35447120095E+02 0.43630253370E+02 0.57771229048E+02 0.89054125066E+02
 0.13409323897E+03 0.17482001141E+03 0.36785649238E+03 0.33585763204E+03 0.25493889483E+03
 0.16100727425E+03 0.89054129506E+02 0.53131605906E+02 0.40565214970E+02 0.32866927353E+02
 0.28695045839E+02 0.27491866514E+02 0.28695045839E+02 0.32866927353E+02 0.40565214970E+02
 0.53131605906E+02 0.89054129506E+02 0.16100727425E+03 0.25493889483E+03 0.33585763204E+03
 0.58319746386E+03 0.53307442958E+03 0.40560871561E+03 0.25493890030E+03 0.13409324888E+03
 0.67744488649E+02 0.44976148869E+02 0.35715239653E+02 0.30502600629E+02 0.28999834104E+02
 0.30502600629E+02 0.35715239653E+02 0.44976148869E+02 0.67744488649E+02 0.13409324888E+03
 0.25493890030E+03 0.40560871561E+03 0.53307442958E+03 0.76432957625E+03 0.69908854721E+03
 0.53307443423E+03 0.33585764216E+03 0.17482002597E+03 0.82257288779E+02 0.48398785167E+02
 0.37673565744E+02 0.31768923254E+02 0.30064098908E+02 0.31768923254E+02 0.37673565744E+02
 0.48398785167E+02 0.82257288779E+02 0.17482002597E+03 0.33585764216E+03 0.53307443423E+03
 0.69908854721E+03 0.51239125732E+03 0.46632172946E+03 0.35072973622E+03 0.21762636054E+03
 0.11490259049E+03 0.61388225039E+02 0.43605992783E+02 0.35098217380E+02 0.30378648275E+02
 0.29024464867E+02 0.30378648275E+02 0.35098217380E+02 0.43605992783E+02 0.61388225039E+02
 0.11490259049E+03 0.21762636054E+03 0.35072973622E+03 0.46632172946E+03 0.46632172833E+03
 0.42436919485E+03 0.31918593241E+03 0.19840529581E+03 0.10592322802E+03 0.58587422172E+02
 0.42842179039E+02 0.34622021321E+02 0.30100303348E+02 0.28802007737E+02 0.30100303348E+02
 0.34622021321E+02 0.42842179039E+02 0.58587422172E+02 0.10592322802E+03 0.19840529581E+03
 0.31918593241E+03 0.42436919485E+03 0.35072973227E+03 0.31918592959E+03 0.24038503364E+03
 0.15092339505E+03 0.84360434368E+02 0.52162154011E+02 0.40639670786E+02 0.33284496894E+02
 0.29326425409E+02 0.28187497385E+02 0.29326425409E+02 0.33284496894E+02 0.40639670786E+02
 0.52162154011E+02 0.84360434368E+02 0.15092339505E+03 0.24038503364E+03 0.31918592959E+03
 0.21762635334E+03 0.19840528975E+03 0.15092339180E+03 0.98618340003E+02 0.62134508727E+02
 0.45773144342E+02 0.37334915584E+02 0.31358802946E+02 0.28228943765E+02 0.27324869556E+02
 0.28228943765E+02 0.31358802946E+02 0.37334915584E+02 0.45773144342E+02 0.62134508727E+02
 0.98618340003E+02 0.15092339180E+03 0.19840528975E+03 0.11490258077E+03 0.10592321943E+03
 0.84360428600E+02 0.62134506203E+02 0.48044880408E+02 0.40065135002E+02 0.33580075797E+02
 0.29255090279E+02 0.27044425092E+02 0.26402440026E+02 0.27044425092E+02 0.29255090279E+02
 0.33580075797E+02 0.40065135002E+02 0.48044880408E+02 0.62134506203E+02 0.84360428600E+02
 0.10592321943E+03 0.61388213918E+02 0.58587412175E+02 0.52162146835E+02 0.45773140410E+02
 0.40065133594E+02 0.34513129179E+02 0.30150005182E+02 0.27383499842E+02 0.25991186597E+02
 0.25584148022E+02 0.25991186597E+02 0.27383499842E+02 0.30150005182E+02 0.34513129179E+02
 0.40065133594E+02 0.45773140410E+02 0.52162146835E+02 0.58587412175E+02 0.43605981056E+02
 0.42842168438E+02 0.40639663005E+02 0.37334911048E+02 0.33580073784E+02 0.30150004577E+02
 0.27583714344E+02 0.25994064935E+02 0.25193938223E+02 0.24957571447E+02 0.25193938223E+02
 0.25994064935E+02 0.27583714344E+02 0.30150004577E+02 0.33580073784E+02 0.37334911048E+02
 0.40639663005E+02 0.42842168438E+02 0.35098205349E+02 0.34622010416E+02 0.33284488810E+02
 0.31358798105E+02 0.29255087962E+02 0.27383498933E+02 0.25994064631E+02 0.25122261633E+02
 0.24671066951E+02 0.24534483883E+02 0.24671066951E+02 0.25122261633E+02 0.25994064631E+02
 0.27383498933E+02 0.29255087962E+02 0.31358798105E+02 0.33284488810E+02 0.34622010416E+02
 0.30378636009E+02 0.30100292207E+02 0.29326417089E+02 0.28228938689E+02 0.27044422540E+02
 0.25991185452E+02 0.25193937683E+02 0.24671066716E+02 0.24383770745E+02 0.24292765995E+02
 0.24383770745E+02 0.24671066716E+02 0.25193937683E+02 0.25991185452E+02 0.27044422540E+02
 0.28228938689E+02 0.29326417089E+02 0.30100292207E+02 0.29024452497E+02 0.28801996492E+02
 0.28187488961E+02 0.27324864376E+02 0.26402437370E+02 0.25584146774E+02 0.24957570803E+02
 0.24534483544E+02 0.24292765891E+02 0.24213996176E+02 0.24292765891E+02 0.24534483544E+02
 0.24957570803E+02 0.25584146774E+02 0.26402437370E+02 0.27324864376E+02 0.28187488961E+02
 0.28801996492E+02 0.30378636009E+02 0.30100292207E+02 0.29326417089E+02 0.28228938689E+02
 0.27044422540E+02 0.25991185452E+02 0.25193937683E+02 0.24671066716E+02 0.24383770745E+02
 0.24292765995E+02 0.24383770745E+02 0.24671066716E+02 0.25193937683E+02 0.25991185452E+02
 0.27044422540E+02 0.28228938689E+02 0.29326417089E+02 0.30100292207E+02 0.35098205349E+02
 0.34622010416E+02 0.33284488810E+02 0.31358798105E+02 0.29255087962E+02 0.27383498933E+02
 0.25994064631E+02 0.25122261633E+02 0.24671066951E+02 0.24534483883E+02 0.24671066951E+02
 0.25122261633E+02 0.25994064631E+02 0.27383498933E+02 0.29255087962E+02 0.31358798105E+02
 0.33284488810E+02 0.34622010416E+02 0.43605981056E+02 0.42842168438E+02 0.40639663005E+02
 0.37334911048E+02 0.33580073784E+02 0.30150004577E+02 0.27583714344E+02 0.25994064935E+02
 0.25193938223E+02 0.24957571447E+02 0.25193938223E+02 0.25994064935E+02 0.27583714344E+02
 0.30150004577E+02 0.33580073784E+02 0.37334911048E+02 0.40639663005E+02 0.42842168438E+02
 0.61388213918E+02 0.58587412175E+02 0.52162146835E+02 0.45773140410E+02 0.40065133594E+02
 0.34513129179E+02 0.30150005182E+02 0.27383499842E+02 0.25991186597E+02 0.25584148022E+02
 0.25991186597E+02 0.27383499842E+02 0.30150005182E+02 0.34513129179E+02 0.40065133594E+02
 0.45773140410E+02 0.52162146835E+02 0.58587412175E+02 0.11490258077E+03 0.10592321943E+03
 0.84360428600E+02 0.62134506203E+02 0.48044880408E+02 0.40065135002E+02 0.33580075797E+02
 0.29255090279E+02 0.27044425092E+02 0.26402440026E+02 0.27044425092E+02 0.29255090279E+02
 0.33580075797E+02 0.40065135002E+02 0.48044880408E+02 0.62134506203E+02 0.84360428600E+02
 0.10592321943E+03 0.21762635334E+03 0.19840528975E+03 0.15092339180E+03 0.98618340003E+02
 0.62134508727E+02 0.45773144342E+02 0.37334915584E+02 0.31358802946E+02 0.28228943765E+02
 0.27324869556E+02 0.28228943765E+02 0.31358802946E+02 0.37334915584E+02 0.45773144342E+02
 0.62134508727E+02 0.98618340003E+02 0.15092339180E+03 0.19840528975E+03 0.35072973227E+03
 0.31918592959E+03 0.24038503364E+03 0.15092339505E+03 0.84360434368E+02 0.52162154011E+02
 0.40639670786E+02 0.33284496894E+02 0.29326425409E+02 0.28187497385E+02 0.29326425409E+02
 0.33284496894E+02 0.40639670786E+02 0.52162154011E+02 0.84360434368E+02 0.15092339505E+03
 0.24038503364E+03 0.31918592959E+03 0.46632172833E+03 0.42436919485E+03 0.31918593241E+03
 0.19840529581E+03 0.10592322802E+03 0.58587422172E+02 0.42842179039E+02 0.34622021321E+02
 0.30100303348E+02 0.28802007737E+02 0.30100303348E+02 0.34622021321E+02 0.42842179039E+02
 0.58587422172E+02 0.10592322802E+03 0.19840529581E+03 0.31918593241E+03 0.42436919485E+03
 0.26477117638E+03 0.24001698145E+03 0.17941521447E+03 0.11346406292E+03 0.67676513654E+02