    5    5    1    2
  0.2199349E+02  0.2496087E-09  0.2496087E-09  0.1765000E-08  0.5000000E-15
 1.0E-4
  CAR 
 clean (100) Ni surface                  
   50   15   33
 
  0.3742002E-15  0.3742002E-15  0.1262379E-14  0.1234568E-01
   1       -8.5275     -8.5368
   2       -7.3489     -7.3506
   3       -5.6769     -5.6434
   4       -4.5333     -4.3437
   5       -4.4503     -4.1699
   6       -4.0050     -3.4974
   7       -3.6463     -3.1225
   8       -3.1335     -2.5338
   9       -2.6567     -2.0507
  10       -2.4205     -1.8069
  11       -2.2841     -1.6175
  12       -2.2841     -1.6175
  13       -1.9116     -1.2659
  14       -1.9116     -1.2127
  15       -1.7402     -1.2127
  16       -1.4654     -0.9602
  17       -1.3178     -0.9286
  18       -1.3178     -0.7568
  19       -1.2796     -0.6411
  20       -1.2346     -0.5981
  21       -1.1688     -0.5981
  22       -1.0746     -0.4474
  23       -0.8037     -0.1817
  24       -0.7914     -0.0218
  25       -0.7914     -0.0218
  26       -0.6304      0.0826
  27       -0.5605      0.1193
  28       -0.5177      0.2476
  29       -0.5177      0.2476
  30        0.5644      0.6270
  31        1.9246      1.9283
  32        4.8938      4.7397
  33        5.9651      5.8783
 
  0.1111111E+00  0.3677614E-15  0.1262379E-14  0.4938272E-01
   1       -8.2157     -8.2239
   2       -7.0569     -7.0554
   3       -5.4251     -5.3816
   4       -4.3386     -4.1241
   5       -4.2655     -3.9846
   6       -3.9053     -3.4018
   7       -3.5610     -3.0438
   8       -3.0811     -2.4884
   9       -2.6485     -2.0422
  10       -2.3516     -1.7349
  11       -2.3067     -1.6524
  12       -2.2435     -1.5768
  13       -2.1263     -1.5313
  14       -1.9372     -1.3696
  15       -1.8553     -1.2554
  16       -1.5277     -0.9256
  17       -1.4851     -0.8829
  18       -1.4018     -0.8139
  19       -1.2923     -0.7351
  20       -1.2613     -0.6799
  21       -1.1118     -0.5361
  22       -1.0329     -0.3877
  23       -1.0215     -0.3519
  24       -1.0019     -0.3374
  25       -0.7165     -0.0127
  26       -0.7103     -0.0029
  27       -0.5864      0.0124
  28       -0.4989      0.1128
  29       -0.4466      0.2577
  30        1.1748      1.3803
  31        2.6249      2.7393
  32        5.1891      5.0385
  33        6.3013      6.2205
 
  0.2222222E+00  0.4024558E-15  0.1262379E-14  0.4938272E-01
   1       -7.3242     -7.3252
   2       -6.2586     -6.2353
   3       -4.8489     -4.7333
   4       -3.9687     -3.6567
   5       -3.8716     -3.5251
   6       -3.6156     -3.1606
   7       -3.2231     -2.7848
   8       -2.8248     -2.3015
   9       -2.6783     -2.0913
  10       -2.3037     -1.7645
  11       -2.2771     -1.6842
  12       -2.2291     -1.6336
  13       -2.1981     -1.6040
  14       -2.1579     -1.5004
  15       -2.0274     -1.3874
  16       -1.8014     -1.1928
  17       -1.7417     -1.0901
  18       -1.6749     -1.0633
  19       -1.5133     -0.8843
  20       -1.2004     -0.6534
  21       -1.1718     -0.5900
  22       -1.1388     -0.5683
  23       -1.1333     -0.4343
  24       -0.9259     -0.4048
  25       -0.8685     -0.1606
  26       -0.7141      0.0029
  27       -0.5575      0.1833
  28       -0.5400      0.1968
  29        0.3858      0.7420
  30        2.3354      2.5415
  31        4.0602      4.2054
  32        6.0542      5.9124
  33        7.3023      7.2377
 
  0.3333333E+00  0.3885781E-15  0.1262379E-14  0.4938272E-01
   1       -6.0249     -5.9892
   2       -5.2797     -5.1573
   3       -4.4832     -4.1847
   4       -3.8819     -3.4701
   5       -3.5869     -3.1340
   6       -3.2026     -2.8508
   7       -2.7175     -2.3208
   8       -2.6897     -2.1492
   9       -2.3993     -1.8956
  10       -2.3568     -1.8535
  11       -2.2922     -1.7304
  12       -2.1765     -1.5642
  13       -2.1651     -1.5597
  14       -2.1057     -1.5383
  15       -2.0490     -1.4846
  16       -1.8808     -1.3001
  17       -1.8171     -1.2557
  18       -1.7750     -1.2113
  19       -1.7269     -1.1654
  20       -1.3667     -0.7496
  21       -1.2588     -0.5562
  22       -0.8920     -0.3055
  23       -0.8893     -0.1743
  24       -0.7286     -0.1568
  25       -0.7149     -0.0236
  26       -0.6355      0.0354
  27       -0.5624      0.0817
  28       -0.5151      0.1712
  29        1.3497      1.5958
  30        3.5136      3.6701
  31        5.3567      5.5736
  32        5.4790      5.6068
  33        6.8904      7.1131
 
  0.4444444E+00  0.3885781E-15  0.1262379E-14  0.4938272E-01
   1       -4.8248     -4.6195
   2       -4.7108     -4.4035
   3       -4.3982     -4.0474
   4       -3.9664     -3.5572
   5       -3.6178     -3.2829
   6       -2.7964     -2.3828
   7       -2.7469     -2.1860
   8       -2.4975     -2.0086
   9       -2.4395     -1.9443
  10       -2.3225     -1.7922
  11       -2.2805     -1.6901
  12       -2.2649     -1.6764
  13       -2.2166     -1.6643
  14       -2.1283     -1.5764
  15       -1.9465     -1.5639
  16       -1.9400     -1.3466
  17       -1.9162     -1.2448
  18       -1.5200     -0.8951
  19       -1.2800     -0.8222
  20       -1.1953     -0.4810
  21       -0.8984     -0.2466
  22       -0.7912     -0.1655
  23       -0.7829     -0.0565
  24       -0.6447      0.0785
  25       -0.5973      0.1323
  26       -0.0463      0.2045
  27       -0.0044      0.4290
  28        0.2669      0.7428
  29        1.5359      1.7375
  30        1.9799      2.3235
  31        4.5223      4.7546
  32        4.6959      4.8979
  33        6.7973      7.0335
 
  0.1111111E+00  0.1111111E+00  0.1262379E-14  0.4938272E-01
   1       -7.9084     -7.9156
   2       -6.7683     -6.7637
   3       -5.1744     -5.1223
   4       -4.1546     -3.9081
   5       -4.0723     -3.8082
   6       -3.8030     -3.2984
   7       -3.4882     -2.9685
   8       -3.0545     -2.4616
   9       -2.6972     -2.0848
  10       -2.2831     -1.6638
  11       -2.2763     -1.6520
  12       -2.2395     -1.6292
  13       -2.1733     -1.6035
  14       -2.1279     -1.5246
  15       -1.9326     -1.2410
  16       -1.6575     -1.0492
  17       -1.4471     -0.9045
  18       -1.4099     -0.8514
  19       -1.3808     -0.7918
  20       -1.3510     -0.7200
  21       -1.2967     -0.6383
  22       -1.1508     -0.5606
  23       -1.0272     -0.4787
  24       -0.8505     -0.2054
  25       -0.8181     -0.1562
  26       -0.7767     -0.0531
  27       -0.6931     -0.0235
  28       -0.5273      0.2357
  29        0.0144      0.4892
  30        1.6510      1.8816
  31        3.1683      3.3062
  32        5.4836      5.3361
  33        6.6367      6.5617
 
  0.2222222E+00  0.1111111E+00  0.1262379E-14  0.9876543E-01
   1       -7.0346     -7.0336
   2       -5.9843     -5.9573
   3       -4.6078     -4.4858
   4       -3.7849     -3.4565
   5       -3.6967     -3.3774
   6       -3.5238     -3.0459
   7       -3.1918     -2.7356
   8       -2.9026     -2.3509
   9       -2.8201     -2.2250
  10       -2.4994     -1.9786
  11       -2.3326     -1.7609
  12       -2.1812     -1.5592
  13       -2.1534     -1.5254
  14       -2.1255     -1.4945
  15       -1.9901     -1.3645
  16       -1.9160     -1.3048
  17       -1.7968     -1.1597
  18       -1.6453     -1.0491
  19       -1.4554     -0.8488
  20       -1.3936     -0.8203
  21       -1.2904     -0.6828
  22       -1.0817     -0.5062
  23       -1.0633     -0.4548
  24       -0.9967     -0.3138
  25       -0.8881     -0.2779
  26       -0.7363     -0.0002
  27       -0.5594      0.1916
  28       -0.3991      0.2036
  29        0.8072      1.1983
  30        2.7195      2.9306
  31        4.4533      4.5934
  32        6.3485      6.2089
  33        7.6326      7.5722
 
  0.3333333E+00  0.1111111E+00  0.1262379E-14  0.9876543E-01
   1       -5.7786     -5.7371
   2       -5.0399     -4.9100
   3       -4.2836     -3.9712
   4       -3.7154     -3.2887
   5       -3.3905     -2.9371
   6       -3.2825     -2.9115
   7       -2.8944     -2.4040
   8       -2.7992     -2.3370
   9       -2.6053     -2.0849
  10       -2.5371     -2.0207
  11       -2.3515     -1.8120
  12       -2.2678     -1.7049
  13       -2.2047     -1.6473
  14       -2.0256     -1.4348
  15       -1.9801     -1.4035
  16       -1.8960     -1.3098
  17       -1.8263     -1.2467
  18       -1.7783     -1.1226
  19       -1.6296     -1.0418
  20       -1.2832     -0.6869
  21       -1.1281     -0.4742
  22       -1.0858     -0.4558
  23       -0.8584     -0.2296
  24       -0.7620     -0.1662
  25       -0.7124     -0.0718
  26       -0.6506      0.0725
  27       -0.6035      0.1196
  28        0.1050      0.6045
  29        1.8155      2.0892
  30        3.9196      4.0808
  31        5.5944      5.8105
  32        5.8331      5.9593
  33        7.0825      7.2942
 
  0.4444444E+00  0.1111111E+00  0.1262379E-14  0.9876543E-01
   1       -4.6387     -4.4279
   2       -4.5109     -4.1901
   3       -4.2312     -3.8656
   4       -3.8511     -3.4231
   5       -3.5092     -3.1806
   6       -2.9695     -2.5151
   7       -2.9153     -2.3711
   8       -2.6302     -2.1827
   9       -2.5864     -2.0800
  10       -2.5036     -2.0267
  11       -2.4376     -1.8513
  12       -2.3199     -1.7817
  13       -2.2110     -1.6862
  14       -2.0799     -1.5018
  15       -1.9638     -1.4040
  16       -1.9232     -1.3184
  17       -1.7663     -1.1723
  18       -1.5171     -0.9611
  19       -1.4537     -0.8384
  20       -1.0837     -0.5229
  21       -1.0349     -0.3143
  22       -0.9121     -0.2586
  23       -0.7223     -0.0508
  24       -0.6908     -0.0437
  25       -0.6034      0.1097
  26        0.2827      0.7989
  27        0.3831      0.8347
  28        1.0297      1.3078
  29        2.0992      2.3231
  30        2.2447      2.5797
  31        4.7302      4.9617
  32        4.9523      5.1556
  33        6.9680      7.1855
 
  0.2222222E+00  0.2222222E+00  0.1262379E-14  0.4938272E-01
   1       -6.2332     -6.2178
   2       -5.2589     -5.2060
   3       -4.0699     -3.8963
   4       -3.5510     -3.1934
   5       -3.2909     -2.9798
   6       -3.2167     -2.7128
   7       -3.1284     -2.5770
   8       -3.0901     -2.5238
   9       -2.9782     -2.4012
  10       -2.9042     -2.3930
  11       -2.4866     -1.9620
  12       -2.3528     -1.7676
  13       -2.1813     -1.6012
  14       -1.9675     -1.3030
  15       -1.9372     -1.2710
  16       -1.8159     -1.1625
  17       -1.6572     -1.1007
  18       -1.6147     -0.9999
  19       -1.4586     -0.9477
  20       -1.4298     -0.8426
  21       -1.3282     -0.6566
  22       -1.2609     -0.6417
  23       -1.2238     -0.6312
  24       -0.9428     -0.3743
  25       -0.8586     -0.1049
  26       -0.6314     -0.0277
  27       -0.5457      0.2132
  28        0.1877      0.7242
  29        1.6874      2.0399
  30        3.7054      3.8995
  31        5.5231      5.6447
  32        7.2183      7.0837
  33        8.6082      8.5570
 
  0.3333333E+00  0.2222222E+00  0.1262379E-14  0.9876543E-01
   1       -5.1704     -5.0926
   2       -4.4506     -4.2868
   3       -3.8393     -3.4784
   4       -3.5145     -3.1401
   5       -3.4820     -2.9961
   6       -3.2927     -2.7382
   7       -3.0686     -2.6103
   8       -3.0284     -2.5222
   9       -2.8363     -2.3095
  10       -2.7720     -2.2819
  11       -2.6120     -2.1064
  12       -2.4948     -1.9394
  13       -2.2638     -1.7144
  14       -1.8020     -1.1683
  15       -1.7716     -1.1390
  16       -1.7099     -1.1079
  17       -1.6181     -1.0404
  18       -1.5976     -0.9667
  19       -1.4396     -0.8665
  20       -1.1835     -0.5851
  21       -1.1565     -0.5324
  22       -0.9984     -0.4171
  23       -0.9097     -0.2997
  24       -0.8017     -0.2049
  25       -0.6943      0.0020
  26       -0.5836      0.1559
  27       -0.1194      0.4292
  28        1.0726      1.4981
  29        2.8874      3.1515
  30        4.9923      5.1482
  31        6.1445      6.3461
  32        6.8199      6.9467
  33        7.6036      7.7767
 
  0.4444444E+00  0.2222222E+00  0.1262379E-14  0.9876543E-01
   1       -4.3097     -4.0761
   2       -4.0528     -3.6895
   3       -3.9207     -3.5087
   4       -3.7517     -3.3219
   5       -3.6489     -3.2172
   6       -3.3234     -2.8128
   7       -3.1637     -2.7097
   8       -3.0786     -2.5689
   9       -2.8221     -2.3233
  10       -2.7090     -2.1956
  11       -2.4369     -1.9430
  12       -2.3792     -1.8521
  13       -2.2677     -1.7465
  14       -1.7650     -1.1548
  15       -1.7425     -1.1431
  16       -1.6973     -1.1218
  17       -1.6620     -1.0371
  18       -1.4892     -0.8921
  19       -1.3044     -0.6357
  20       -1.0664     -0.4085
  21       -0.9076     -0.3038
  22       -0.7978     -0.2165
  23       -0.6391      0.0102
  24       -0.5950      0.1118
  25       -0.5652      0.1266
  26        0.5993      1.0510
  27        1.3003      1.6777
  28        2.4957      2.7613
  29        2.9056      3.2002
  30        3.4007      3.6259
  31        5.3317      5.5478
  32        5.6975      5.8991
  33        7.5483      7.7149
 
  0.3333333E+00  0.3333333E+00  0.1262379E-14  0.4938272E-01
   1       -4.5993     -4.4128
   2       -3.9333     -3.6780
   3       -3.8105     -3.4332
   4       -3.6468     -3.1382
   5       -3.6223     -3.0924
   6       -3.5418     -3.0531
   7       -3.3144     -2.8751
   8       -3.2755     -2.7012
   9       -2.9429     -2.4509
  10       -2.7558     -2.2006
  11       -2.7345     -2.1930
  12       -2.2878     -1.7619
  13       -2.2185     -1.6756
  14       -1.4127     -0.7873
  15       -1.3945     -0.7623
  16       -1.3692     -0.7376
  17       -1.3237     -0.6911
  18       -1.2447     -0.6887
  19       -1.0667     -0.5246
  20       -1.0361     -0.3867
  21       -0.9438     -0.3595
  22       -0.9432     -0.2811
  23       -0.7878     -0.2578
  24       -0.7494     -0.0141
  25       -0.5349      0.0465
  26       -0.4030      0.2219
  27        0.8020      1.2186
  28        2.3587      2.6830
  29        4.3482      4.5640
  30        5.8735      6.0411
  31        6.5708      6.7007
  32        7.2843      7.4543
  33        8.5617      8.6394
 
  0.4444444E+00  0.3333333E+00  0.1262379E-14  0.9876543E-01
   1       -4.3069     -4.0003
   2       -4.0726     -3.7192
   3       -3.8722     -3.4370
   4       -3.8108     -3.2899
   5       -3.7010     -3.2195
   6       -3.5927     -3.0807
   7       -3.5009     -3.0451
   8       -3.3266     -2.7812
   9       -3.1426     -2.6544
  10       -2.9155     -2.3653
  11       -2.5386     -1.9792
  12       -2.0355     -1.4943
  13       -1.9233     -1.3429
  14       -1.3095     -0.7414
  15       -1.2575     -0.7072
  16       -1.1828     -0.5499
  17       -1.1516     -0.5067
  18       -1.0793     -0.4315
  19       -1.0217     -0.4159
  20       -0.9155     -0.2853
  21       -0.7624     -0.1645
  22       -0.6319     -0.0086
  23       -0.6129      0.0265
  24       -0.5958      0.1279
  25       -0.4641      0.2707
  26        1.2166      1.5135
  27        2.4845      2.7630
  28        3.6179      3.8251
  29        4.1658      4.3888
  30        4.8510      5.0467
  31        6.4044      6.5736
  32        6.8554      7.0345
  33        8.6701      8.7827
 
  0.4444444E+00  0.4444444E+00  0.1262379E-14  0.4938272E-01
   1       -4.4121     -4.0524
   2       -4.2867     -3.9460
   3       -3.9782     -3.5696
   4       -3.9475     -3.4052
   5       -3.9292     -3.3973
   6       -3.6646     -3.2089
   7       -3.5154     -2.9791
   8       -3.4855     -2.9195
   9       -3.3906     -2.9034
  10       -2.7173     -2.1520
  11       -2.6801     -2.1100
  12       -1.7595     -1.1430
  13       -1.7179     -1.0983
  14       -1.1390     -0.5790
  15       -1.0377     -0.5125
  16       -0.8829     -0.2385
  17       -0.8301     -0.1626
  18       -0.7426     -0.1200
  19       -0.6975     -0.0953
  20       -0.6191     -0.0120
  21       -0.6067      0.0437
  22       -0.5336      0.1460
  23       -0.4992      0.1982
  24       -0.3537      0.3917
  25       -0.3114      0.4487
  26        2.3779      2.4972
  27        3.6118      3.7108
  28        4.0027      4.1757
  29        5.3170      5.4477
  30        6.0444      6.2148
  31        7.6284      7.7662
  32        8.2329      8.3691
  33        9.3269      9.5504
