       N       E                     dE             d eps       ncg     rms          rms(c)
DAV:   1    -0.255714124167E+02   -0.25571E+02   -0.40233E-04  1420   0.484E-01    0.267E-01
DAV:   2    -0.255924153099E+02   -0.21003E-01   -0.11609E-01  2345   0.473E+00    0.290E+00
DAV:   3    -0.255712360099E+02    0.21179E-01   -0.12072E-01  2220   0.445E+00    0.872E-01
DAV:   4    -0.255715373357E+02   -0.30133E-03   -0.14637E-02  2360   0.188E+00    0.434E-01
DAV:   5    -0.255708818052E+02    0.65553E-03   -0.35807E-03  2410   0.131E+00    0.411E-01
DAV:   6    -0.255707593766E+02    0.12243E-03   -0.12488E-03  1990   0.836E-01    0.134E-01
DAV:   7    -0.255707067772E+02    0.52599E-04   -0.34715E-04  1251   0.385E-01
   1 F= -.25570707E+02 E0= -.25570707E+02  d E =0.000000E+00  mag=     3.0566
