 vasp.4.6.38 12Jan11 complex 
 executed on                  Sun date 2020.02.18  16:34:56
 serial version


--------------------------------------------------------------------------------------------------------


 INCAR:
 POTCAR:    PAW Ni                                

 ----------------------------------------------------------------------------- 
|                                                                             |
|           W    W    AA    RRRRR   N    N  II  N    N   GGGG   !!!           |
|           W    W   A  A   R    R  NN   N  II  NN   N  G    G  !!!           |
|           W    W  A    A  R    R  N N  N  II  N N  N  G       !!!           |
|           W WW W  AAAAAA  RRRRR   N  N N  II  N  N N  G  GGG   !            |
|           WW  WW  A    A  R   R   N   NN  II  N   NN  G    G                |
|           W    W  A    A  R    R  N    N  II  N    N   GGGG   !!!           |
|                                                                             |
|     This version of vasp.4.6 restores the correct one-centre multipoles     |
|     of the AE-charge density up to L=6. Previous versions truncated the     |
|     augmentation at L=4. This version is compatible with vasp.5.2 and       |
|     technically more accurate.                                              |
|     If you want to recover the old vasp.4.6 behaviour please change us.F    |
|     around line 2801 and 1508 (LYMAX=MIN(4,LYMAX*2) instead LYMAX=LYMAX*2)  |
|     Changes between this and previous vasp version are expected to be       |
|     small, except for f elements.                                           |
|                                                                             |
 ----------------------------------------------------------------------------- 

 POTCAR:    PAW Ni                                
   VRHFIN =Ni:                                                                  
   LEXCH  = 91                                                                  
   EATOM  =  1079.4692 eV,   79.3388 Ry                                         
                                                                                
   TITEL  = PAW Ni                                                              
   LULTRA =        F    use ultrasoft PP ?                                      
   IUNSCR =        1    unscreen: 0-lin 1-nonlin 2-no                           
   RPACOR =    2.000    partial core radius                                     
   POMASS =   58.690; ZVAL   =   10.000    mass and valenz                      
   RCORE  =    2.300    outmost cutoff radius                                   
   RWIGS  =    2.430; RWIGS  =    1.286    wigner-seitz radius (au A)           
   ENMAX  =  269.561; ENMIN  =  202.171 eV                                      
   RCLOC  =    1.681    cutoff for local pot                                    
   LCOR   =        T    correct aug charges                                     
   LPAW   =        T    paw PP                                                  
   EAUG   =  544.565                                                            
   DEXC   =    -.002                                                            
   RMAX   =    2.808    core radius for proj-oper                               
   RAUG   =    1.300    factor for augmentation sphere                          
   RDEP   =    2.390    core radius for depl-charge                             
   QCUT   =   -4.451; QGAM   =    8.902    optimization parameters              
                                                                                
   Description                                                                  
     l     E      TYP  RCUT    TYP  RCUT                                        
     2   .000     23  2.300                                                     
     2   .000     23  2.300                                                     
     0   .000     23  2.300                                                     
     0   .000     23  2.300                                                     
     1  -.200     23  2.300                                                     
     1   .000     23  2.300                                                     
     3   .000      7   .000                                                     
  local pseudopotential read in
  partial core-charges read in
  atomic valenz-charges read in
  non local Contribution for L= 2  read in
    real space projection operators read in
  non local Contribution for L= 2  read in
    real space projection operators read in
  non local Contribution for L= 0  read in
    real space projection operators read in
  non local Contribution for L= 0  read in
    real space projection operators read in
  non local Contribution for L= 1  read in
    real space projection operators read in
  non local Contribution for L= 1  read in
    real space projection operators read in
    PAW grid and wavefunctions read in
 
   number of l-projection  operators is LMAX  = 6
   number of lm-projection operators is LMMAX = 18
 
  PAW Ni                                :
 energy of atom  1       EATOM=-1079.4692
 kinetic energy error for atom=    0.0378 (will be added to EATOM!!)
 
 EXHCAR: internal setup
 exchange correlation table for  LEXCH =        7
   RHO(1)=    0.500       N(1)  =     2000
   RHO(2)=  100.500       N(2)  =     4000
 
 POSCAR: fcc (100) surface                       
  positions in direct lattice
  velocities in cartesian coordinates
 


--------------------------------------------------------------------------------------------------------


 ion  position               nearest neighbor table
   1  0.000  0.000  0.000-   2 2.50   2 2.50   2 2.50   2 2.50
   2  0.500  0.500  0.100-   1 2.50   3 2.50   1 2.50   3 2.50   1 2.50   3 2.50   1 2.50   3 2.50

   3  0.000  0.000  0.200-   2 2.50   2 2.50   2 2.50   2 2.50   4 2.50   4 2.50   4 2.50   4 2.50

   4  0.500  0.500  0.300-   5 2.44   5 2.44   5 2.44   5 2.44   3 2.50   3 2.50   3 2.50   3 2.50

   5  0.000  0.000  0.396-   4 2.44   4 2.44   4 2.44   4 2.44
 
  LATTYP: Found a simple tetragonal cell.
 ALAT       =     2.4960869376
 C/A-ratio  =     7.0710678119
  
  Lattice vectors:
  
 A1 = (   1.7650000000,   1.7650000000,   0.0000000000)
 A2 = (  -1.7650000000,   1.7650000000,   0.0000000000)
 A3 = (   0.0000000000,   0.0000000000,  17.6500000000)
 Subroutine PRICEL returns:
 Original cell was already a primitive cell.
 

Analysis of symmetry for initial positions (statically):

 Routine SETGRP: Setting up the symmetry group for a 
 simple tetragonal supercell.


 Subroutine GETGRP returns: Found  8 space group operations
 (whereof  8 operations were pure point group operations)
 out of a pool of 16 trial point group operations.


The static configuration has the point symmetry C_4v.

Analysis of symmetry for dynamics (positions and initial velocities):

 Subroutine DYNSYM returns: Found  8 space group operations
 (whereof  8 operations were pure point group operations)
 out of a pool of  8 trial space group operations
 (whereof  8 operations were pure point group operations)
 and found also     1 'primitive' translations


The dynamic configuration has the point symmetry C_4v.

Analysis of constrained symmetry for selective dynamics:

 Subroutine DYNSYM returns: Found  8 space group operations
 (whereof  8 operations were pure point group operations)
 out of a pool of  8 trial space group operations
 (whereof  8 operations were pure point group operations)
 and found also     1 'primitive' translations


The constrained configuration has the point symmetry C_4v.

Analysis of magnetic symmetry:

 Subroutine MAGSYM returns: Found  8 space group operations
 (whereof  8 operations were pure point group operations)
 out of a pool of  8 trial space group operations
 (whereof  8 operations were pure point group operations)
 and found also     1 'primitive' translations


The magnetic configuration has the point symmetry C_4v.
 
 
 KPOINTS: K-Points                                

Automatic generation of k-mesh.
 
 Subroutine IBZKPT returns following result:
 ===========================================
 
 Found     15 irreducible k-points:
 
 Following reciprocal coordinates:
            Coordinates               Weight
  0.000000  0.000000  0.000000      1.000000
  0.111111  0.000000  0.000000      4.000000
  0.222222  0.000000  0.000000      4.000000
  0.333333  0.000000  0.000000      4.000000
  0.444444  0.000000  0.000000      4.000000
  0.111111  0.111111  0.000000      4.000000
  0.222222  0.111111  0.000000      8.000000
  0.333333  0.111111  0.000000      8.000000
  0.444444  0.111111  0.000000      8.000000
  0.222222  0.222222  0.000000      4.000000
  0.333333  0.222222  0.000000      8.000000
  0.444444  0.222222  0.000000      8.000000
  0.333333  0.333333  0.000000      4.000000
  0.444444  0.333333  0.000000      8.000000
  0.444444  0.444444  0.000000      4.000000
 
 Following cartesian coordinates:
            Coordinates               Weight
  0.000000  0.000000  0.000000      1.000000
  0.111111  0.111111  0.000000      4.000000
  0.222222  0.222222  0.000000      4.000000
  0.333333  0.333333  0.000000      4.000000
  0.444444  0.444444  0.000000      4.000000
  0.000000  0.222222  0.000000      4.000000
  0.111111  0.333333  0.000000      8.000000
  0.222222  0.444444  0.000000      8.000000
  0.333333  0.555556  0.000000      8.000000
  0.000000  0.444444  0.000000      4.000000
  0.111111  0.555556  0.000000      8.000000
  0.222222  0.666667  0.000000      8.000000
  0.000000  0.666667  0.000000      4.000000
  0.111111  0.777778  0.000000      8.000000
  0.000000  0.888889  0.000000      4.000000
 
 TETIRR: Found    111 inequivalent tetrahedra from      486


--------------------------------------------------------------------------------------------------------




 Dimension of arrays:
   k-Points           NKPTS =     15   number of bands    NBANDS=     33
   number of dos      NEDOS =    301   number of ions     NIONS =      5
   non local maximal  LDIM  =      6   non local SUM 2l+1 LMDIM =     18
   total plane-waves  NPLWV =   7200
   max r-space proj   IRMAX =      1   max aug-charges    IRDMAX=   1871
   dimension x,y,z NGX =    10 NGY =   10 NGZ =   72
   dimension x,y,z NGXF=    18 NGYF=   18 NGZF=  140
   support grid    NGXF=    18 NGYF=   18 NGZF=  140
   ions per type =               5
 NGX,Y,Z   is equivalent  to a cutoff of   6.66,  6.66,  6.78 a.u.
 NGXF,Y,Z  is equivalent  to a cutoff of  11.99, 11.99, 13.19 a.u.


 I would recommend the setting:
   dimension x,y,z NGX =    10 NGY =   10 NGZ =   71
 SYSTEM =  clean (100) Ni surface                  
 POSCAR =  fcc (100) surface                       

 Startparameter for this run:
   NWRITE =      2    write-flag & timer
   PREC   = medium    medium, high low
   ISTART =      1    job   : 0-new  1-cont  2-samecut
   ICHARG =      0    charge: 1-file 2-atom 10-const
   ISPIN  =      2    spin polarized calculation?
   LNONCOLLINEAR =      F non collinear calculations
   LSORBIT =      F    spin-orbit coupling
   INIWAV =      1    electr: 0-lowe 1-rand  2-diag
   LASPH  =      F    aspherical Exc in radial PAW
   METAGGA=      F    non-selfconsistent MetaGGA calc.

 Electronic Relaxation 1
   ENCUT  =  270.0 eV  19.84 Ry    4.45 a.u.   3.34  3.34 23.65*2*pi/ulx,y,z
   ENINI  =  270.0     initial cutoff
   ENAUG  =  544.6 eV  augmentation charge cutoff
   NELM   =     60;   NELMIN=  2; NELMDL=  0     # of ELM steps 
   EDIFF  = 0.1E-03   stopping-criterion for ELM
   LREAL  =      F    real-space projection
   LCOMPAT=      F    compatible to vasp.4.4
   LREAL_COMPAT= F    compatible to vasp.4.5.1-3
   GGA_COMPAT  = T    GGA compatible to vasp.4.4-vasp.4.6
   LMAXPAW     = -100 max onsite density
   LMAXMIX     =    2 max onsite mixed and CHGCAR
   VOSKOWN=      0    Vosko Wilk Nusair interpolation
   ROPT   =    0.00000
 Ionic relaxation
   EDIFFG = 0.1E-02   stopping-criterion for IOM
   NSW    =      0    number of steps for IOM
   NBLOCK =      1;   KBLOCK =      1    inner block; outer block 
   IBRION =     -1    ionic relax: 0-MD 1-quasi-New 2-CG
   NFREE  =      0    steps in history (QN), initial steepest desc. (CG)
   ISIF   =      2    stress and relaxation
   IWAVPR =      0    prediction:  0-non 1-charg 2-wave 3-comb
   ISYM   =      2    0-nonsym 1-usesym 2-fastsym
   LCORR  =      T    Harris-Foulkes like correction to forces

   POTIM  =   0.50    time-step for ionic-motion
   TEIN   =    0.0    initial temperature
   TEBEG  =    0.0;   TEEND  =   0.0 temperature during run
   SMASS  =  -3.00    Nose mass-parameter (am)
   estimated Nose-frequenzy (Omega)   =  0.10E-29 period in steps =****** mass=  -0.142E-27a.u.
   NPACO  =    256;   APACO  = 16.0  distance and # of slots for P.C.
   PSTRESS=    0.0 pullay stress

  Mass of Ions in am
   POMASS =  58.69
  Ionic Valenz
   ZVAL   =  10.00
  Atomic Wigner-Seitz radii
   RWIGS  =  -1.00
   NELECT =      50.0000    total number of electrons
   NUPDOWN=      -1.0000    fix difference up-down

 DOS related values:
   EMIN   =  10.00;   EMAX   =-10.00  energy-range for DOS
   ISMEAR =    -5;   SIGMA  =   0.20  broadening in eV -4-tet -1-fermi 0-gaus

 Electronic relaxation 2 (details)
   IALGO  =     38    algorithm
   LDIAG  =      T    sub-space diagonalisation
   IMIX   =      4    mixing-type and parameters
     AMIX     =   0.40;   BMIX     =  1.00
     AMIX_MAG =   1.60;   BMIX_MAG =  1.00
     AMIN     =   0.10
     WC   =   100.;   INIMIX=   1;  MIXPRE=   1

 Intra band minimization:
   WEIMIN = 0.0000     energy-eigenvalue tresh-hold
   EBREAK =  0.76E-06  absolut break condition
   DEPER  =   0.30     relativ break condition  

   TIME   =   0.10     timestep for ELM

  volume/ion in A,a.u.               =      21.99       148.42
  Fermi-wavevector in a.u.,eV,Ry     =   1.258858 21.561476  1.584724

 Second variation
   LSECVAR=     F    do a second variation
 
 Write flags
   LWAVE  =      T    write WAVECAR
   LCHARG =      T    write CHGCAR
   LVTOT  =      F    write LOCPOT, local potential
   LELF   =      F    write electronic localiz. function (ELF)
   LORBIT =     11    0 simple, 1 ext, 2 COOP (PROOUT)


 Dipole corrections
   IDIPOL =      0    1-x, 2-y, 3-z
   LDIPOL =      F    correct potential



--------------------------------------------------------------------------------------------------------


 Static calculation
 charge density will be updated during run
 spin polarized calculation
 Variant of blocked Davidson
 Davidson routine will perform the subspace rotation
 performe sub-space diagonalisation
    after iterative eigenvector-optimisation
 modified Broyden-mixing scheme, WC =      100.0
 initial mixing is a Kerker type mixing with AMIX =  0.4000 and BMIX =      1.0000
 Hartree-type preconditioning will be used
 using additional bands  8
 reciprocal scheme for non local part
 use partial core corrections
 calculate Harris-corrections to forces   (improved forces if not selfconsistent)
 use gradient corrections 
 use of overlap-Matrix (Vanderbilt PP)
 Fermi weights with tetrahedron method with Bloechl corrections


--------------------------------------------------------------------------------------------------------


  energy-cutoff  :      270.00
  volume of cell :      109.97
      direct lattice vectors                 reciprocal lattice vectors
     1.765000000  1.765000000  0.000000000     0.283286119  0.283286119  0.000000000
    -1.765000000  1.765000000  0.000000000    -0.283286119  0.283286119  0.000000000
     0.000000000  0.000000000 17.650000000     0.000000000  0.000000000  0.056657224

  length of vectors
     2.496086938  2.496086938 17.650000000     0.400627071  0.400627071  0.056657224


 
 old parameters found on file WAVECAR:
  energy-cutoff  :      270.00
  volume of cell :      109.97
      direct lattice vectors                 reciprocal lattice vectors
     1.765000000  1.765000000  0.000000000     0.283286119  0.283286119  0.000000000
    -1.765000000  1.765000000  0.000000000    -0.283286119  0.283286119  0.000000000
     0.000000000  0.000000000 17.650000000     0.000000000  0.000000000  0.056657224

  length of vectors

 
 k-points in units of 2pi/SCALE and weight: K-Points                                
   0.00000000  0.00000000  0.00000000       0.012
   0.11111111  0.11111111  0.00000000       0.049
   0.22222222  0.22222222  0.00000000       0.049
   0.33333333  0.33333333  0.00000000       0.049
   0.44444444  0.44444444  0.00000000       0.049
   0.00000000  0.22222222  0.00000000       0.049
   0.11111111  0.33333333  0.00000000       0.099
   0.22222222  0.44444444  0.00000000       0.099
   0.33333333  0.55555556  0.00000000       0.099
   0.00000000  0.44444444  0.00000000       0.049
   0.11111111  0.55555556  0.00000000       0.099
   0.22222222  0.66666667  0.00000000       0.099
   0.00000000  0.66666667  0.00000000       0.049
   0.11111111  0.77777778  0.00000000       0.099
   0.00000000  0.88888889  0.00000000       0.049
 
 k-points in reciprocal lattice and weights: K-Points                                
   0.00000000  0.00000000  0.00000000       0.012
   0.11111111  0.00000000  0.00000000       0.049
   0.22222222  0.00000000  0.00000000       0.049
   0.33333333  0.00000000  0.00000000       0.049
   0.44444444  0.00000000  0.00000000       0.049
   0.11111111  0.11111111  0.00000000       0.049
   0.22222222  0.11111111  0.00000000       0.099
   0.33333333  0.11111111  0.00000000       0.099
   0.44444444  0.11111111  0.00000000       0.099
   0.22222222  0.22222222  0.00000000       0.049
   0.33333333  0.22222222  0.00000000       0.099
   0.44444444  0.22222222  0.00000000       0.099
   0.33333333  0.33333333  0.00000000       0.049
   0.44444444  0.33333333  0.00000000       0.099
   0.44444444  0.44444444  0.00000000       0.049
 
 position of ions in fractional coordinates (direct lattice) 
   0.00000000  0.00000000  0.00000000
   0.50000000  0.50000000  0.10000000
   0.00000000  0.00000000  0.20000000
   0.50000000  0.50000000  0.30039442
   0.00000000  0.00000000  0.39589016
 
 position of ions in cartesian coordinates  (Angst):
   0.00000000  0.00000000  0.00000000
   0.00000000  1.76500000  1.76500000
   0.00000000  0.00000000  3.53000000
   0.00000000  1.76500000  5.30196147
   0.00000000  0.00000000  6.98746140
 


--------------------------------------------------------------------------------------------------------


 k-point  1 :  0.00000.00000.0000  plane waves:   1131
 k-point  2 :  0.11110.00000.0000  plane waves:   1131
 k-point  3 :  0.22220.00000.0000  plane waves:   1109
 k-point  4 :  0.33330.00000.0000  plane waves:   1109
 k-point  5 :  0.44440.00000.0000  plane waves:   1104
 k-point  6 :  0.11110.11110.0000  plane waves:   1121
 k-point  7 :  0.22220.11110.0000  plane waves:   1104
 k-point  8 :  0.33330.11110.0000  plane waves:   1106
 k-point  9 :  0.44440.11110.0000  plane waves:   1120
 k-point 10 :  0.22220.22220.0000  plane waves:   1113
 k-point 11 :  0.33330.22220.0000  plane waves:   1108
 k-point 12 :  0.44440.22220.0000  plane waves:   1109
 k-point 13 :  0.33330.33330.0000  plane waves:   1099
 k-point 14 :  0.44440.33330.0000  plane waves:   1088
 k-point 15 :  0.44440.44440.0000  plane waves:   1088

 maximum number of plane-waves:   1131
 maximal index in each direction: 
   IXMAX=  3   IYMAX=  3   IZMAX= 23
   IXMIN= -3   IYMIN= -3   IZMIN=-23

 WARNING: wrap around error must be expected set NGX to  14
 WARNING: wrap around error must be expected set NGY to  14
 WARNING: wrap around error must be expected set NGZ to  94
 For storing wavefunctions   17.57 MBYTES are necessary
 For predicting wavefunctions    3.54 MBYTES are necessary
Broyden mixing: mesh for mixing (old mesh)
   NGX =  7   NGY =  7   NGZ = 47
  (NGX  = 18   NGY  = 18   NGZ  =140)
 gives a total of   2303 points
 charge density for first step will be calculated from the start-wavefunctions


--------------------------------------------------------------------------------------------------------


 Maximum index for augmentation-charges  1627 (set IRDMAX)


--------------------------------------------------------------------------------------------------------


 initial charge from wavefunction
 First call to EWALD:  gamma=   0.370
 Maximum number of real-space cells 5x 5x 1
 Maximum number of reciprocal cells 2x 2x 9

    FEWALD:  VPU time    0.02: CPU time    0.02


----------------------------------------- Iteration    1(   1)  ---------------------------------------


    POTLOK:  VPU time    7.81: CPU time    7.81
    SETDIJ:  VPU time    1.46: CPU time    1.46
    EDDAV :  VPU time  184.52: CPU time   88.23
 BZINTS: Fermi energy: -0.053577; 50.000000 electrons
         Band energy:-106.711699;  BLOECHL correction: -0.111820
    DOS   :  VPU time   -0.00: CPU time   -0.00
    CHARGE:  VPU time    9.13: CPU time    9.13
    MIXING:  VPU time    0.06: CPU time    0.06
    ------------------------------------------
      LOOP:  VPU time  204.31: CPU time  108.02

 eigenvalue-minimisations  :  1420
 total energy-change (2. order) :-0.2557141E+02  (-0.4023304E-04)
 number of electron   50.0000369 magnetization    3.0800633
 augmentation part    30.9635455 magnetization    2.9214858

 Broyden mixing:
  rms(total) = 0.26659E-01    rms(broyden)= 0.26398E-01
  rms(prec ) = 0.30764E-01
  weight for this iteration     100.00

 Free energy of the ion-electron system (eV)
  ---------------------------------------------------
  alpha Z        PSCENC =       228.18410549
  Ewald energy   TEWEN  =      9428.86269635
  -1/2 Hartree   DENC   =    -14782.06206576
  -V(xc)+E(xc)   XCENC  =       151.69796818
  PAW double counting   =      4544.33244566    -4887.03181812
  entropy T*S    EENTRO =         0.00000000
  eigenvalues    EBANDS =      -106.71169906
  atomic energy  EATOM  =      5397.15695484
  ---------------------------------------------------
  free energy    TOTEN  =       -25.57141242 eV

  energy without entropy =      -25.57141242  energy(sigma->0) =      -25.57141242


--------------------------------------------------------------------------------------------------------




----------------------------------------- Iteration    1(   2)  ---------------------------------------


    POTLOK:  VPU time    7.80: CPU time    7.80
    SETDIJ:  VPU time    1.46: CPU time    1.46
    EDDAV :  VPU time  266.60: CPU time  124.85
 BZINTS: Fermi energy: -0.055053; 50.000000 electrons
         Band energy:-106.323250;  BLOECHL correction: -0.109830
    DOS   :  VPU time   -0.00: CPU time   -0.00
    CHARGE:  VPU time    9.16: CPU time    9.16
    MIXING:  VPU time    0.07: CPU time    0.07
    ------------------------------------------
      LOOP:  VPU time  286.41: CPU time  144.64

 eigenvalue-minimisations  :  2345
 total energy-change (2. order) :-0.2100289E-01  (-0.1160893E-01)
 number of electron   50.0000361 magnetization    3.0793922
 augmentation part    30.9648094 magnetization    2.9115026

 Broyden mixing:
  rms(total) = 0.29030E+00    rms(broyden)= 0.29002E+00
  rms(prec ) = 0.39993E+00
  weight for this iteration     100.00

 eigenvalues of (default mixing * dielectric matrix)
  average eigenvalue GAMMA=   0.0601
  0.0601

 Free energy of the ion-electron system (eV)
  ---------------------------------------------------
  alpha Z        PSCENC =       228.18410549
  Ewald energy   TEWEN  =      9428.86269635
  -1/2 Hartree   DENC   =    -14782.43185050
  -V(xc)+E(xc)   XCENC  =       151.69945168
  PAW double counting   =      4544.75114632    -4887.49166947
  entropy T*S    EENTRO =         0.00000000
  eigenvalues    EBANDS =      -106.32325000
  atomic energy  EATOM  =      5397.15695484
  ---------------------------------------------------
  free energy    TOTEN  =       -25.59241531 eV

  energy without entropy =      -25.59241531  energy(sigma->0) =      -25.59241531


--------------------------------------------------------------------------------------------------------




----------------------------------------- Iteration    1(   3)  ---------------------------------------


    POTLOK:  VPU time    7.79: CPU time    7.79
    SETDIJ:  VPU time    1.46: CPU time    1.46
    EDDAV :  VPU time  254.62: CPU time  119.61
 BZINTS: Fermi energy: -0.052799; 50.000000 electrons
         Band energy:-106.460055;  BLOECHL correction: -0.110848
    DOS   :  VPU time   -0.00: CPU time   -0.00
    CHARGE:  VPU time    9.20: CPU time    9.20
    MIXING:  VPU time    0.08: CPU time    0.08
    ------------------------------------------
      LOOP:  VPU time  274.51: CPU time  139.49

 eigenvalue-minimisations  :  2220
 total energy-change (2. order) : 0.2117930E-01  (-0.1207168E-01)
 number of electron   50.0000370 magnetization    3.0781511
 augmentation part    30.9635877 magnetization    2.9055058

 Broyden mixing:
  rms(total) = 0.87213E-01    rms(broyden)= 0.86364E-01
  rms(prec ) = 0.10886E+00
  weight for this iteration     100.00

 eigenvalues of (default mixing * dielectric matrix)
  average eigenvalue GAMMA=   0.1083
  0.0464  0.1702

 Free energy of the ion-electron system (eV)
  ---------------------------------------------------
  alpha Z        PSCENC =       228.18410549
  Ewald energy   TEWEN  =      9428.86269635
  -1/2 Hartree   DENC   =    -14782.27501958
  -V(xc)+E(xc)   XCENC  =       151.70116327
  PAW double counting   =      4544.77370985    -4887.51479092
  entropy T*S    EENTRO =         0.00000000
  eigenvalues    EBANDS =      -106.46005531
  atomic energy  EATOM  =      5397.15695484
  ---------------------------------------------------
  free energy    TOTEN  =       -25.57123601 eV

  energy without entropy =      -25.57123601  energy(sigma->0) =      -25.57123601


--------------------------------------------------------------------------------------------------------




----------------------------------------- Iteration    1(   4)  ---------------------------------------


    POTLOK:  VPU time    7.82: CPU time    7.82
    SETDIJ:  VPU time    1.46: CPU time    1.46
    EDDAV :  VPU time  267.63: CPU time  125.49
 BZINTS: Fermi energy: -0.051872; 50.000000 electrons
         Band energy:-106.509485;  BLOECHL correction: -0.111444
    DOS   :  VPU time   -0.00: CPU time   -0.00
    CHARGE:  VPU time    9.13: CPU time    9.13
    MIXING:  VPU time    0.08: CPU time    0.08
    ------------------------------------------
      LOOP:  VPU time  287.41: CPU time  145.27

 eigenvalue-minimisations  :  2360
 total energy-change (2. order) :-0.3013257E-03  (-0.1463721E-02)
 number of electron   50.0000368 magnetization    3.0762825
 augmentation part    30.9565957 magnetization    2.9075364

 Broyden mixing:
  rms(total) = 0.43398E-01    rms(broyden)= 0.43124E-01
  rms(prec ) = 0.52722E-01
  weight for this iteration     100.00

 eigenvalues of (default mixing * dielectric matrix)
  average eigenvalue GAMMA=   0.1713
  0.3701  0.0985  0.0452

 Free energy of the ion-electron system (eV)
  ---------------------------------------------------
  alpha Z        PSCENC =       228.18410549
  Ewald energy   TEWEN  =      9428.86269635
  -1/2 Hartree   DENC   =    -14782.22533490
  -V(xc)+E(xc)   XCENC  =       151.70039466
  PAW double counting   =      4544.82760258    -4887.56847177
  entropy T*S    EENTRO =         0.00000000
  eigenvalues    EBANDS =      -106.50948458
  atomic energy  EATOM  =      5397.15695484
  ---------------------------------------------------
  free energy    TOTEN  =       -25.57153734 eV

  energy without entropy =      -25.57153734  energy(sigma->0) =      -25.57153734


--------------------------------------------------------------------------------------------------------




----------------------------------------- Iteration    1(   5)  ---------------------------------------


    POTLOK:  VPU time    7.82: CPU time    7.82
    SETDIJ:  VPU time    1.46: CPU time    1.46
    EDDAV :  VPU time  272.11: CPU time  127.50
 BZINTS: Fermi energy: -0.048971; 50.000000 electrons
         Band energy:-106.285027;  BLOECHL correction: -0.111346
    DOS   :  VPU time   -0.00: CPU time   -0.00
    CHARGE:  VPU time    9.20: CPU time    9.20
    MIXING:  VPU time    0.09: CPU time    0.09
    ------------------------------------------
      LOOP:  VPU time  292.02: CPU time  147.40

 eigenvalue-minimisations  :  2410
 total energy-change (2. order) : 0.6555305E-03  (-0.3580651E-03)
 number of electron   50.0000368 magnetization    3.0687526
 augmentation part    30.9537008 magnetization    2.9022871

 Broyden mixing:
  rms(total) = 0.41126E-01    rms(broyden)= 0.41082E-01
  rms(prec ) = 0.49230E-01
  weight for this iteration     100.00

 eigenvalues of (default mixing * dielectric matrix)
  average eigenvalue GAMMA=   0.3238
  1.0313  0.1436  0.0448  0.0755

 Free energy of the ion-electron system (eV)
  ---------------------------------------------------
  alpha Z        PSCENC =       228.18410549
  Ewald energy   TEWEN  =      9428.86269635
  -1/2 Hartree   DENC   =    -14782.45660631
  -V(xc)+E(xc)   XCENC  =       151.69914161
  PAW double counting   =      4544.82558863    -4887.55773572
  entropy T*S    EENTRO =         0.00000000
  eigenvalues    EBANDS =      -106.28502668
  atomic energy  EATOM  =      5397.15695484
  ---------------------------------------------------
  free energy    TOTEN  =       -25.57088181 eV

  energy without entropy =      -25.57088181  energy(sigma->0) =      -25.57088181


--------------------------------------------------------------------------------------------------------




----------------------------------------- Iteration    1(   6)  ---------------------------------------


    POTLOK:  VPU time    7.79: CPU time    7.79
    SETDIJ:  VPU time    1.46: CPU time    1.46
    EDDAV :  VPU time  233.95: CPU time  110.49
 BZINTS: Fermi energy: -0.055416; 50.000000 electrons
         Band energy:-106.617482;  BLOECHL correction: -0.111405
    DOS   :  VPU time   -0.00: CPU time   -0.00
    CHARGE:  VPU time    9.13: CPU time    9.13
    MIXING:  VPU time    0.10: CPU time    0.10
    ------------------------------------------
      LOOP:  VPU time  253.75: CPU time  130.27

 eigenvalue-minimisations  :  1990
 total energy-change (2. order) : 0.1224286E-03  (-0.1248799E-03)
 number of electron   50.0000369 magnetization    3.0670325
 augmentation part    30.9598917 magnetization    2.8997683

 Broyden mixing:
  rms(total) = 0.13379E-01    rms(broyden)= 0.13341E-01
  rms(prec ) = 0.14927E-01
  weight for this iteration     100.00

 eigenvalues of (default mixing * dielectric matrix)
  average eigenvalue GAMMA=   0.2992
  1.0595  0.0449  0.0741  0.1785  0.1389

 Free energy of the ion-electron system (eV)
  ---------------------------------------------------
  alpha Z        PSCENC =       228.18410549
  Ewald energy   TEWEN  =      9428.86269635
  -1/2 Hartree   DENC   =    -14782.17089549
  -V(xc)+E(xc)   XCENC  =       151.69519619
  PAW double counting   =      4544.67279627    -4887.35413091
  entropy T*S    EENTRO =         0.00000000
  eigenvalues    EBANDS =      -106.61748210
  atomic energy  EATOM  =      5397.15695484
  ---------------------------------------------------
  free energy    TOTEN  =       -25.57075938 eV

  energy without entropy =      -25.57075938  energy(sigma->0) =      -25.57075938


--------------------------------------------------------------------------------------------------------




----------------------------------------- Iteration    1(   7)  ---------------------------------------


    POTLOK:  VPU time    7.81: CPU time    7.81
    SETDIJ:  VPU time    1.46: CPU time    1.46
    EDDAV :  VPU time  169.02: CPU time   81.38
 BZINTS: Fermi energy: -0.055695; 50.000000 electrons
         Band energy:-106.620542;  BLOECHL correction: -0.111340
    DOS   :  VPU time   -0.00: CPU time   -0.00
    ------------------------------------------
      LOOP:  VPU time  179.58: CPU time   91.92

 eigenvalue-minimisations  :  1251
 total energy-change (2. order) : 0.5259935E-04  (-0.3471514E-04)
 number of electron   50.0000369 magnetization    3.0670325
 augmentation part    30.9598917 magnetization    2.8997683

 Free energy of the ion-electron system (eV)
  ---------------------------------------------------
  alpha Z        PSCENC =       228.18410549
  Ewald energy   TEWEN  =      9428.86269635
  -1/2 Hartree   DENC   =    -14782.17067544
  -V(xc)+E(xc)   XCENC  =       151.69537115
  PAW double counting   =      4544.68850668    -4887.36712403
  entropy T*S    EENTRO =         0.00000000
  eigenvalues    EBANDS =      -106.62054181
  atomic energy  EATOM  =      5397.15695484
  ---------------------------------------------------
  free energy    TOTEN  =       -25.57070678 eV

  energy without entropy =      -25.57070678  energy(sigma->0) =      -25.57070678


--------------------------------------------------------------------------------------------------------




 average (electrostatic) potential at core
  the test charge radii are     0.9791
  (the norm of the test charge is              1.0000)
       1 -47.0882       2 -47.4051       3 -47.3955       4 -47.4618       5 -47.1243
 
 
 
 E-fermi :  -0.0557     XC(G=0):  -7.5948     alpha+bet : -5.8801
   add alpha+bet to get absolut eigen values

 spin component 1

 k-point   1 :       0.0000    0.0000    0.0000
  band No.  band energies     occupation 
      1      -8.5275      1.00000
      2      -7.3489      1.00000
      3      -5.6769      1.00000
      4      -4.5333      1.00000
      5      -4.4503      1.00000
      6      -4.0050      1.00000
      7      -3.6463      1.00000
      8      -3.1335      1.00000
      9      -2.6567      1.00000
     10      -2.4205      1.00000
     11      -2.2841      1.00000
     12      -2.2841      1.00000
     13      -1.9116      1.00000
     14      -1.9116      1.00000
     15      -1.7402      1.00000
     16      -1.4654      1.00000
     17      -1.3178      1.00000
     18      -1.3178      1.00000
     19      -1.2796      1.00000
     20      -1.2346      1.00000
     21      -1.1688      1.00000
     22      -1.0746      1.00000
     23      -0.8037      1.00000
     24      -0.7914      1.00000
     25      -0.7914      1.00000
     26      -0.6304      1.00000
     27      -0.5605      1.00000
     28      -0.5177      1.00000
     29      -0.5177      1.02980
     30       0.5644      0.00000
     31       1.9246      0.00000
     32       4.8938      0.00000
     33       5.9651      0.00000

 k-point   2 :       0.1111    0.0000    0.0000
  band No.  band energies     occupation 
      1      -8.2157      1.00000
      2      -7.0569      1.00000
      3      -5.4251      1.00000
      4      -4.3386      1.00000
      5      -4.2655      1.00000
      6      -3.9053      1.00000
      7      -3.5610      1.00000
      8      -3.0811      1.00000
      9      -2.6485      1.00000
     10      -2.3516      1.00000
     11      -2.3067      1.00000
     12      -2.2435      1.00000
     13      -2.1263      1.00000
     14      -1.9372      1.00000
     15      -1.8553      1.00000
     16      -1.5277      1.00000
     17      -1.4851      1.00000
     18      -1.4018      1.00000
     19      -1.2923      1.00000
     20      -1.2613      1.00000
     21      -1.1118      1.00000
     22      -1.0329      1.00000
     23      -1.0215      1.00000
     24      -1.0019      1.00000
     25      -0.7165      1.00000
     26      -0.7103      1.00000
     27      -0.5864      1.00000
     28      -0.4989      1.00000
     29      -0.4466      0.89592
     30       1.1748      0.00000
     31       2.6249      0.00000
     32       5.1891      0.00000
     33       6.3013      0.00000

 k-point   3 :       0.2222    0.0000    0.0000
  band No.  band energies     occupation 
      1      -7.3242      1.00000
      2      -6.2586      1.00000
      3      -4.8489      1.00000
      4      -3.9687      1.00000
      5      -3.8716      1.00000
      6      -3.6156      1.00000
      7      -3.2231      1.00000
      8      -2.8248      1.00000
      9      -2.6783      1.00000
     10      -2.3037      1.00000
     11      -2.2771      1.00000
     12      -2.2291      1.00000
     13      -2.1981      1.00000
     14      -2.1579      1.00000
     15      -2.0274      1.00000
     16      -1.8014      1.00000
     17      -1.7417      1.00000
     18      -1.6749      1.00000
     19      -1.5133      1.00000
     20      -1.2004      1.00000
     21      -1.1718      1.00000
     22      -1.1388      1.00000
     23      -1.1333      1.00000
     24      -0.9259      1.00000
     25      -0.8685      1.00000
     26      -0.7141      1.00000
     27      -0.5575      1.00000
     28      -0.5400      1.02336
     29       0.3858     -0.01536
     30       2.3354      0.00000
     31       4.0602      0.00000
     32       6.0542      0.00000
     33       7.3023      0.00000

 k-point   4 :       0.3333    0.0000    0.0000
  band No.  band energies     occupation 
      1      -6.0249      1.00000
      2      -5.2797      1.00000
      3      -4.4832      1.00000
      4      -3.8819      1.00000
      5      -3.5869      1.00000
      6      -3.2026      1.00000
      7      -2.7175      1.00000
      8      -2.6897      1.00000
      9      -2.3993      1.00000
     10      -2.3568      1.00000
     11      -2.2922      1.00000
     12      -2.1765      1.00000
     13      -2.1651      1.00000
     14      -2.1057      1.00000
     15      -2.0490      1.00000
     16      -1.8808      1.00000
     17      -1.8171      1.00000
     18      -1.7750      1.00000
     19      -1.7269      1.00000
     20      -1.3667      1.00000
     21      -1.2588      1.00000
     22      -0.8920      1.00000
     23      -0.8893      1.00000
     24      -0.7286      1.00000
     25      -0.7149      1.00000
     26      -0.6355      1.04924
     27      -0.5624      1.02484
     28      -0.5151      0.91448
     29       1.3497      0.00000
     30       3.5136      0.00000
     31       5.3567      0.00000
     32       5.4790      0.00000
     33       6.8904      0.00000

 k-point   5 :       0.4444    0.0000    0.0000
  band No.  band energies     occupation 
      1      -4.8248      1.00000
      2      -4.7108      1.00000
      3      -4.3982      1.00000
      4      -3.9664      1.00000
      5      -3.6178      1.00000
      6      -2.7964      1.00000
      7      -2.7469      1.00000
      8      -2.4975      1.00000
      9      -2.4395      1.00000
     10      -2.3225      1.00000
     11      -2.2805      1.00000
     12      -2.2649      1.00000
     13      -2.2166      1.00000
     14      -2.1283      1.00000
     15      -1.9465      1.00000
     16      -1.9400      1.00000
     17      -1.9162      1.00000
     18      -1.5200      1.00000
     19      -1.2800      1.00000
     20      -1.1953      1.00000
     21      -0.8984      1.00000
     22      -0.7912      1.00000
     23      -0.7829      1.00000
     24      -0.6447      1.00000
     25      -0.5973      1.00000
     26      -0.0463      0.34807
     27      -0.0044      0.28976
     28       0.2669      0.01984
     29       1.5359      0.00000
     30       1.9799      0.00000
     31       4.5223      0.00000
     32       4.6959      0.00000
     33       6.7973      0.00000

 k-point   6 :       0.1111    0.1111    0.0000
  band No.  band energies     occupation 
      1      -7.9084      1.00000
      2      -6.7683      1.00000
      3      -5.1744      1.00000
      4      -4.1546      1.00000
      5      -4.0723      1.00000
      6      -3.8030      1.00000
      7      -3.4882      1.00000
      8      -3.0545      1.00000
      9      -2.6972      1.00000
     10      -2.2831      1.00000
     11      -2.2763      1.00000
     12      -2.2395      1.00000
     13      -2.1733      1.00000
     14      -2.1279      1.00000
     15      -1.9326      1.00000
     16      -1.6575      1.00000
     17      -1.4471      1.00000
     18      -1.4099      1.00000
     19      -1.3808      1.00000
     20      -1.3510      1.00000
     21      -1.2967      1.00000
     22      -1.1508      1.00000
     23      -1.0272      1.00000
     24      -0.8505      1.00000
     25      -0.8181      1.00000
     26      -0.7767      1.00000
     27      -0.6931      1.00000
     28      -0.5273      1.01314
     29       0.0144      0.31020
     30       1.6510      0.00000
     31       3.1683      0.00000
     32       5.4836      0.00000
     33       6.6367      0.00000

 k-point   7 :       0.2222    0.1111    0.0000
  band No.  band energies     occupation 
      1      -7.0346      1.00000
      2      -5.9843      1.00000
      3      -4.6078      1.00000
      4      -3.7849      1.00000
      5      -3.6967      1.00000
      6      -3.5238      1.00000
      7      -3.1918      1.00000
      8      -2.9026      1.00000
      9      -2.8201      1.00000
     10      -2.4994      1.00000
     11      -2.3326      1.00000
     12      -2.1812      1.00000
     13      -2.1534      1.00000
     14      -2.1255      1.00000
     15      -1.9901      1.00000
     16      -1.9160      1.00000
     17      -1.7968      1.00000
     18      -1.6453      1.00000
     19      -1.4554      1.00000
     20      -1.3936      1.00000
     21      -1.2904      1.00000
     22      -1.0817      1.00000
     23      -1.0633      1.00000
     24      -0.9967      1.00000
     25      -0.8881      1.00000
     26      -0.7363      1.00000
     27      -0.5594      1.00000
     28      -0.3991      0.93476
     29       0.8072     -0.02973
     30       2.7195      0.00000
     31       4.4533      0.00000
     32       6.3485      0.00000
     33       7.6326      0.00000

 k-point   8 :       0.3333    0.1111    0.0000
  band No.  band energies     occupation 
      1      -5.7786      1.00000
      2      -5.0399      1.00000
      3      -4.2836      1.00000
      4      -3.7154      1.00000
      5      -3.3905      1.00000
      6      -3.2825      1.00000
      7      -2.8944      1.00000
      8      -2.7992      1.00000
      9      -2.6053      1.00000
     10      -2.5371      1.00000
     11      -2.3515      1.00000
     12      -2.2678      1.00000
     13      -2.2047      1.00000
     14      -2.0256      1.00000
     15      -1.9801      1.00000
     16      -1.8960      1.00000
     17      -1.8263      1.00000
     18      -1.7783      1.00000
     19      -1.6296      1.00000
     20      -1.2832      1.00000
     21      -1.1281      1.00000
     22      -1.0858      1.00000
     23      -0.8584      1.00000
     24      -0.7620      1.00000
     25      -0.7124      1.00000
     26      -0.6506      1.01859
     27      -0.6035      0.97516
     28       0.1050      0.22181
     29       1.8155      0.00000
     30       3.9196      0.00000
     31       5.5944      0.00000
     32       5.8331      0.00000
     33       7.0825      0.00000

 k-point   9 :       0.4444    0.1111    0.0000
  band No.  band energies     occupation 
      1      -4.6387      1.00000
      2      -4.5109      1.00000
      3      -4.2312      1.00000
      4      -3.8511      1.00000
      5      -3.5092      1.00000
      6      -2.9695      1.00000
      7      -2.9153      1.00000
      8      -2.6302      1.00000
      9      -2.5864      1.00000
     10      -2.5036      1.00000
     11      -2.4376      1.00000
     12      -2.3199      1.00000
     13      -2.2110      1.00000
     14      -2.0799      1.00000
     15      -1.9638      1.00000
     16      -1.9232      1.00000
     17      -1.7663      1.00000
     18      -1.5171      1.00000
     19      -1.4537      1.00000
     20      -1.0837      1.00000
     21      -1.0349      1.00000
     22      -0.9121      1.00000
     23      -0.7223      1.00000
     24      -0.6908      1.00000
     25      -0.6034      1.00000
     26       0.2827      0.11009
     27       0.3831      0.02894
     28       1.0297     -0.03148
     29       2.0992      0.00000
     30       2.2447      0.00000
     31       4.7302      0.00000
     32       4.9523      0.00000
     33       6.9680      0.00000

 k-point  10 :       0.2222    0.2222    0.0000
  band No.  band energies     occupation 
      1      -6.2332      1.00000
      2      -5.2589      1.00000
      3      -4.0699      1.00000
      4      -3.5510      1.00000
      5      -3.2909      1.00000
      6      -3.2167      1.00000
      7      -3.1284      1.00000
      8      -3.0901      1.00000
      9      -2.9782      1.00000
     10      -2.9042      1.00000
     11      -2.4866      1.00000
     12      -2.3528      1.00000
     13      -2.1813      1.00000
     14      -1.9675      1.00000
     15      -1.9372      1.00000
     16      -1.8159      1.00000
     17      -1.6572      1.00000
     18      -1.6147      1.00000
     19      -1.4586      1.00000
     20      -1.4298      1.00000
     21      -1.3282      1.00000
     22      -1.2609      1.00000
     23      -1.2238      1.00000
     24      -0.9428      1.00000
     25      -0.8586      1.00000
     26      -0.6314      1.00000
     27      -0.5457      0.98600
     28       0.1877      0.13474
     29       1.6874      0.00000
     30       3.7054      0.00000
     31       5.5231      0.00000
     32       7.2183      0.00000
     33       8.6082      0.00000

 k-point  11 :       0.3333    0.2222    0.0000
  band No.  band energies     occupation 
      1      -5.1704      1.00000
      2      -4.4506      1.00000
      3      -3.8393      1.00000
      4      -3.5145      1.00000
      5      -3.4820      1.00000
      6      -3.2927      1.00000
      7      -3.0686      1.00000
      8      -3.0284      1.00000
      9      -2.8363      1.00000
     10      -2.7720      1.00000
     11      -2.6120      1.00000
     12      -2.4948      1.00000
     13      -2.2638      1.00000
     14      -1.8020      1.00000
     15      -1.7716      1.00000
     16      -1.7099      1.00000
     17      -1.6181      1.00000
     18      -1.5976      1.00000
     19      -1.4396      1.00000
     20      -1.1835      1.00000
     21      -1.1565      1.00000
     22      -0.9984      1.00000
     23      -0.9097      1.00000
     24      -0.8017      1.00000
     25      -0.6943      1.00000
     26      -0.5836      0.92591
     27      -0.1194      0.51956
     28       1.0726     -0.03523
     29       2.8874      0.00000
     30       4.9923      0.00000
     31       6.1445      0.00000
     32       6.8199      0.00000
     33       7.6036      0.00000

 k-point  12 :       0.4444    0.2222    0.0000
  band No.  band energies     occupation 
      1      -4.3097      1.00000
      2      -4.0528      1.00000
      3      -3.9207      1.00000
      4      -3.7517      1.00000
      5      -3.6489      1.00000
      6      -3.3234      1.00000
      7      -3.1637      1.00000
      8      -3.0786      1.00000
      9      -2.8221      1.00000
     10      -2.7090      1.00000
     11      -2.4369      1.00000
     12      -2.3792      1.00000
     13      -2.2677      1.00000
     14      -1.7650      1.00000
     15      -1.7425      1.00000
     16      -1.6973      1.00000
     17      -1.6620      1.00000
     18      -1.4892      1.00000
     19      -1.3044      1.00000
     20      -1.0664      1.00000
     21      -0.9076      1.00000
     22      -0.7978      1.00000
     23      -0.6391      1.00000
     24      -0.5950      1.00000
     25      -0.5652      1.00000
     26       0.5993      0.00667
     27       1.3003     -0.04441
     28       2.4957      0.00000
     29       2.9056      0.00000
     30       3.4007      0.00000
     31       5.3317      0.00000
     32       5.6975      0.00000
     33       7.5483      0.00000

 k-point  13 :       0.3333    0.3333    0.0000
  band No.  band energies     occupation 
      1      -4.5993      1.00000
      2      -3.9333      1.00000
      3      -3.8105      1.00000
      4      -3.6468      1.00000
      5      -3.6223      1.00000
      6      -3.5418      1.00000
      7      -3.3144      1.00000
      8      -3.2755      1.00000
      9      -2.9429      1.00000
     10      -2.7558      1.00000
     11      -2.7345      1.00000
     12      -2.2878      1.00000
     13      -2.2185      1.00000
     14      -1.4127      1.00000
     15      -1.3945      1.00000
     16      -1.3692      1.00000
     17      -1.3237      1.00000
     18      -1.2447      1.00000
     19      -1.0667      1.00000
     20      -1.0361      1.00000
     21      -0.9438      1.00000
     22      -0.9432      1.00000
     23      -0.7878      1.00000
     24      -0.7494      1.00000
     25      -0.5349      1.00000
     26      -0.4030      0.62101
     27       0.8020     -0.07341
     28       2.3587      0.00000
     29       4.3482      0.00000
     30       5.8735      0.00000
     31       6.5708      0.00000
     32       7.2843      0.00000
     33       8.5617      0.00000

 k-point  14 :       0.4444    0.3333    0.0000
  band No.  band energies     occupation 
      1      -4.3069      1.00000
      2      -4.0726      1.00000
      3      -3.8722      1.00000
      4      -3.8108      1.00000
      5      -3.7010      1.00000
      6      -3.5927      1.00000
      7      -3.5009      1.00000
      8      -3.3266      1.00000
      9      -3.1426      1.00000
     10      -2.9155      1.00000
     11      -2.5386      1.00000
     12      -2.0355      1.00000
     13      -1.9233      1.00000
     14      -1.3095      1.00000
     15      -1.2575      1.00000
     16      -1.1828      1.00000
     17      -1.1516      1.00000
     18      -1.0793      1.00000
     19      -1.0217      1.00000
     20      -0.9155      1.00000
     21      -0.7624      1.00000
     22      -0.6319      1.00000
     23      -0.6129      1.00000
     24      -0.5958      1.00000
     25      -0.4641      1.00000
     26       1.2166     -0.04027
     27       2.4845     -0.00365
     28       3.6179      0.00000
     29       4.1658      0.00000
     30       4.8510      0.00000
     31       6.4044      0.00000
     32       6.8554      0.00000
     33       8.6701      0.00000

 k-point  15 :       0.4444    0.4444    0.0000
  band No.  band energies     occupation 
      1      -4.4121      1.00000
      2      -4.2867      1.00000
      3      -3.9782      1.00000
      4      -3.9475      1.00000
      5      -3.9292      1.00000
      6      -3.6646      1.00000
      7      -3.5154      1.00000
      8      -3.4855      1.00000
      9      -3.3906      1.00000
     10      -2.7173      1.00000
     11      -2.6801      1.00000
     12      -1.7595      1.00000
     13      -1.7179      1.00000
     14      -1.1390      1.00000
     15      -1.0377      1.00000
     16      -0.8829      1.00000
     17      -0.8301      1.00000
     18      -0.7426      1.00000
     19      -0.6975      1.00000
     20      -0.6191      1.00000
     21      -0.6067      1.00000
     22      -0.5336      1.00000
     23      -0.4992      1.00000
     24      -0.3537      1.00000
     25      -0.3114      1.00000
     26       2.3779     -0.01221
     27       3.6118      0.00000
     28       4.0027      0.00000
     29       5.3170      0.00000
     30       6.0444      0.00000
     31       7.6284      0.00000
     32       8.2329      0.00000
     33       9.3269      0.00000

 spin component 2

 k-point   1 :       0.0000    0.0000    0.0000
  band No.  band energies     occupation 
      1      -8.5368      1.00000
      2      -7.3506      1.00000
      3      -5.6434      1.00000
      4      -4.3437      1.00000
      5      -4.1699      1.00000
      6      -3.4974      1.00000
      7      -3.1225      1.00000
      8      -2.5338      1.00000
      9      -2.0507      1.00000
     10      -1.8069      1.00000
     11      -1.6175      1.00000
     12      -1.6175      1.00000
     13      -1.2659      1.00000
     14      -1.2127      1.00000
     15      -1.2127      1.00000
     16      -0.9602      1.00000
     17      -0.9286      1.00000
     18      -0.7568      1.00000
     19      -0.6411      1.00000
     20      -0.5981      1.00000
     21      -0.5981      1.00000
     22      -0.4474      1.00000
     23      -0.1817      1.00000
     24      -0.0218      0.87652
     25      -0.0218      0.15383
     26       0.0826      0.00000
     27       0.1193      0.00000
     28       0.2476      0.00000
     29       0.2476      0.00000
     30       0.6270      0.00000
     31       1.9283      0.00000
     32       4.7397      0.00000
     33       5.8783      0.00000

 k-point   2 :       0.1111    0.0000    0.0000
  band No.  band energies     occupation 
      1      -8.2239      1.00000
      2      -7.0554      1.00000
      3      -5.3816      1.00000
      4      -4.1241      1.00000
      5      -3.9846      1.00000
      6      -3.4018      1.00000
      7      -3.0438      1.00000
      8      -2.4884      1.00000
      9      -2.0422      1.00000
     10      -1.7349      1.00000
     11      -1.6524      1.00000
     12      -1.5768      1.00000
     13      -1.5313      1.00000
     14      -1.3696      1.00000
     15      -1.2554      1.00000
     16      -0.9256      1.00000
     17      -0.8829      1.00000
     18      -0.8139      1.00000
     19      -0.7351      1.00000
     20      -0.6799      1.00000
     21      -0.5361      1.00000
     22      -0.3877      1.00000
     23      -0.3519      1.00000
     24      -0.3374      1.01568
     25      -0.0127      0.41157
     26      -0.0029      0.00000
     27       0.0124      0.00000
     28       0.1128      0.00000
     29       0.2577      0.00000
     30       1.3803      0.00000
     31       2.7393      0.00000
     32       5.0385      0.00000
     33       6.2205      0.00000

 k-point   3 :       0.2222    0.0000    0.0000
  band No.  band energies     occupation 
      1      -7.3252      1.00000
      2      -6.2353      1.00000
      3      -4.7333      1.00000
      4      -3.6567      1.00000
      5      -3.5251      1.00000
      6      -3.1606      1.00000
      7      -2.7848      1.00000
      8      -2.3015      1.00000
      9      -2.0913      1.00000
     10      -1.7645      1.00000
     11      -1.6842      1.00000
     12      -1.6336      1.00000
     13      -1.6040      1.00000
     14      -1.5004      1.00000
     15      -1.3874      1.00000
     16      -1.1928      1.00000
     17      -1.0901      1.00000
     18      -1.0633      1.00000
     19      -0.8843      1.00000
     20      -0.6534      1.00000
     21      -0.5900      1.00000
     22      -0.5683      1.00000
     23      -0.4343      1.00000
     24      -0.4048      1.00000
     25      -0.1606      1.05054
     26       0.0029      0.00000
     27       0.1833      0.00000
     28       0.1968      0.00000
     29       0.7420      0.00000
     30       2.5415      0.00000
     31       4.2054      0.00000
     32       5.9124      0.00000
     33       7.2377      0.00000

 k-point   4 :       0.3333    0.0000    0.0000
  band No.  band energies     occupation 
      1      -5.9892      1.00000
      2      -5.1573      1.00000
      3      -4.1847      1.00000
      4      -3.4701      1.00000
      5      -3.1340      1.00000
      6      -2.8508      1.00000
      7      -2.3208      1.00000
      8      -2.1492      1.00000
      9      -1.8956      1.00000
     10      -1.8535      1.00000
     11      -1.7304      1.00000
     12      -1.5642      1.00000
     13      -1.5597      1.00000
     14      -1.5383      1.00000
     15      -1.4846      1.00000
     16      -1.3001      1.00000
     17      -1.2557      1.00000
     18      -1.2113      1.00000
     19      -1.1654      1.00000
     20      -0.7496      1.00000
     21      -0.5562      1.00000
     22      -0.3055      1.00000
     23      -0.1743      1.06396
     24      -0.1568      0.99203
     25      -0.0236      0.32183
     26       0.0354      0.00000
     27       0.0817      0.00000
     28       0.1712      0.00000
     29       1.5958      0.00000
     30       3.6701      0.00000
     31       5.5736      0.00000
     32       5.6068      0.00000
     33       7.1131      0.00000

 k-point   5 :       0.4444    0.0000    0.0000
  band No.  band energies     occupation 
      1      -4.6195      1.00000
      2      -4.4035      1.00000
      3      -4.0474      1.00000
      4      -3.5572      1.00000
      5      -3.2829      1.00000
      6      -2.3828      1.00000
      7      -2.1860      1.00000
      8      -2.0086      1.00000
      9      -1.9443      1.00000
     10      -1.7922      1.00000
     11      -1.6901      1.00000
     12      -1.6764      1.00000
     13      -1.6643      1.00000
     14      -1.5764      1.00000
     15      -1.5639      1.00000
     16      -1.3466      1.00000
     17      -1.2448      1.00000
     18      -0.8951      1.00000
     19      -0.8222      1.00000
     20      -0.4810      1.00000
     21      -0.2466      1.00000
     22      -0.1655      1.00000
     23      -0.0565      0.65113
     24       0.0785     -0.02913
     25       0.1323     -0.02721
     26       0.2045      0.00000
     27       0.4290      0.00000
     28       0.7428      0.00000
     29       1.7375      0.00000
     30       2.3235      0.00000
     31       4.7546      0.00000
     32       4.8979      0.00000
     33       7.0335      0.00000

 k-point   6 :       0.1111    0.1111    0.0000
  band No.  band energies     occupation 
      1      -7.9156      1.00000
      2      -6.7637      1.00000
      3      -5.1223      1.00000
      4      -3.9081      1.00000
      5      -3.8082      1.00000
      6      -3.2984      1.00000
      7      -2.9685      1.00000
      8      -2.4616      1.00000
      9      -2.0848      1.00000
     10      -1.6638      1.00000
     11      -1.6520      1.00000
     12      -1.6292      1.00000
     13      -1.6035      1.00000
     14      -1.5246      1.00000
     15      -1.2410      1.00000
     16      -1.0492      1.00000
     17      -0.9045      1.00000
     18      -0.8514      1.00000
     19      -0.7918      1.00000
     20      -0.7200      1.00000
     21      -0.6383      1.00000
     22      -0.5606      1.00000
     23      -0.4787      1.00000
     24      -0.2054      1.00240
     25      -0.1562      1.04905
     26      -0.0531      0.00000
     27      -0.0235      0.00000
     28       0.2357      0.00000
     29       0.4892      0.00000
     30       1.8816      0.00000
     31       3.3062      0.00000
     32       5.3361      0.00000
     33       6.5617      0.00000

 k-point   7 :       0.2222    0.1111    0.0000
  band No.  band energies     occupation 
      1      -7.0336      1.00000
      2      -5.9573      1.00000
      3      -4.4858      1.00000
      4      -3.4565      1.00000
      5      -3.3774      1.00000
      6      -3.0459      1.00000
      7      -2.7356      1.00000
      8      -2.3509      1.00000
      9      -2.2250      1.00000
     10      -1.9786      1.00000
     11      -1.7609      1.00000
     12      -1.5592      1.00000
     13      -1.5254      1.00000
     14      -1.4945      1.00000
     15      -1.3645      1.00000
     16      -1.3048      1.00000
     17      -1.1597      1.00000
     18      -1.0491      1.00000
     19      -0.8488      1.00000
     20      -0.8203      1.00000
     21      -0.6828      1.00000
     22      -0.5062      1.00000
     23      -0.4548      1.00000
     24      -0.3138      1.00000
     25      -0.2779      1.08483
     26      -0.0002      0.00000
     27       0.1916      0.00000
     28       0.2036      0.00000
     29       1.1983      0.00000
     30       2.9306      0.00000
     31       4.5934      0.00000
     32       6.2089      0.00000
     33       7.5722      0.00000

 k-point   8 :       0.3333    0.1111    0.0000
  band No.  band energies     occupation 
      1      -5.7371      1.00000
      2      -4.9100      1.00000
      3      -3.9712      1.00000
      4      -3.2887      1.00000
      5      -2.9371      1.00000
      6      -2.9115      1.00000
      7      -2.4040      1.00000
      8      -2.3370      1.00000
      9      -2.0849      1.00000
     10      -2.0207      1.00000
     11      -1.8120      1.00000
     12      -1.7049      1.00000
     13      -1.6473      1.00000
     14      -1.4348      1.00000
     15      -1.4035      1.00000
     16      -1.3098      1.00000
     17      -1.2467      1.00000
     18      -1.1226      1.00000
     19      -1.0418      1.00000
     20      -0.6869      1.00000
     21      -0.4742      1.00000
     22      -0.4558      1.00000
     23      -0.2296      1.06238
     24      -0.1662      0.99040
     25      -0.0718      0.50689
     26       0.0725      0.00000
     27       0.1196      0.00000
     28       0.6045      0.00000
     29       2.0892      0.00000
     30       4.0808      0.00000
     31       5.8105      0.00000
     32       5.9593      0.00000
     33       7.2942      0.00000

 k-point   9 :       0.4444    0.1111    0.0000
  band No.  band energies     occupation 
      1      -4.4279      1.00000
      2      -4.1901      1.00000
      3      -3.8656      1.00000
      4      -3.4231      1.00000
      5      -3.1806      1.00000
      6      -2.5151      1.00000
      7      -2.3711      1.00000
      8      -2.1827      1.00000
      9      -2.0800      1.00000
     10      -2.0267      1.00000
     11      -1.8513      1.00000
     12      -1.7817      1.00000
     13      -1.6862      1.00000
     14      -1.5018      1.00000
     15      -1.4040      1.00000
     16      -1.3184      1.00000
     17      -1.1723      1.00000
     18      -0.9611      1.00000
     19      -0.8384      1.00000
     20      -0.5229      1.00000
     21      -0.3143      1.00000
     22      -0.2586      1.00000
     23      -0.0508      0.34937
     24      -0.0437      0.27354
     25       0.1097     -0.02164
     26       0.7989      0.00000
     27       0.8347      0.00000
     28       1.3078      0.00000
     29       2.3231      0.00000
     30       2.5797      0.00000
     31       4.9617      0.00000
     32       5.1556      0.00000
     33       7.1855      0.00000

 k-point  10 :       0.2222    0.2222    0.0000
  band No.  band energies     occupation 
      1      -6.2178      1.00000
      2      -5.2060      1.00000
      3      -3.8963      1.00000
      4      -3.1934      1.00000
      5      -2.9798      1.00000
      6      -2.7128      1.00000
      7      -2.5770      1.00000
      8      -2.5238      1.00000
      9      -2.4012      1.00000
     10      -2.3930      1.00000
     11      -1.9620      1.00000
     12      -1.7676      1.00000
     13      -1.6012      1.00000
     14      -1.3030      1.00000
     15      -1.2710      1.00000
     16      -1.1625      1.00000
     17      -1.1007      1.00000
     18      -0.9999      1.00000
     19      -0.9477      1.00000
     20      -0.8426      1.00000
     21      -0.6566      1.00000
     22      -0.6417      1.00000
     23      -0.6312      1.00000
     24      -0.3743      1.01282
     25      -0.1049      0.88926
     26      -0.0277      0.00000
     27       0.2132      0.00000
     28       0.7242      0.00000
     29       2.0399      0.00000
     30       3.8995      0.00000
     31       5.6447      0.00000
     32       7.0837      0.00000
     33       8.5570      0.00000

 k-point  11 :       0.3333    0.2222    0.0000
  band No.  band energies     occupation 
      1      -5.0926      1.00000
      2      -4.2868      1.00000
      3      -3.4784      1.00000
      4      -3.1401      1.00000
      5      -2.9961      1.00000
      6      -2.7382      1.00000
      7      -2.6103      1.00000
      8      -2.5222      1.00000
      9      -2.3095      1.00000
     10      -2.2819      1.00000
     11      -2.1064      1.00000
     12      -1.9394      1.00000
     13      -1.7144      1.00000
     14      -1.1683      1.00000
     15      -1.1390      1.00000
     16      -1.1079      1.00000
     17      -1.0404      1.00000
     18      -0.9667      1.00000
     19      -0.8665      1.00000
     20      -0.5851      1.00000
     21      -0.5324      1.00000
     22      -0.4171      1.01148
     23      -0.2997      1.06802
     24      -0.2049      0.97514
     25       0.0020      0.07738
     26       0.1559      0.00000
     27       0.4292      0.00000
     28       1.4981      0.00000
     29       3.1515      0.00000
     30       5.1482      0.00000
     31       6.3461      0.00000
     32       6.9467      0.00000
     33       7.7767      0.00000

 k-point  12 :       0.4444    0.2222    0.0000
  band No.  band energies     occupation 
      1      -4.0761      1.00000
      2      -3.6895      1.00000
      3      -3.5087      1.00000
      4      -3.3219      1.00000
      5      -3.2172      1.00000
      6      -2.8128      1.00000
      7      -2.7097      1.00000
      8      -2.5689      1.00000
      9      -2.3233      1.00000
     10      -2.1956      1.00000
     11      -1.9430      1.00000
     12      -1.8521      1.00000
     13      -1.7465      1.00000
     14      -1.1548      1.00000
     15      -1.1431      1.00000
     16      -1.1218      1.00000
     17      -1.0371      1.00000
     18      -0.8921      1.00000
     19      -0.6357      1.00000
     20      -0.4085      1.00000
     21      -0.3038      1.00000
     22      -0.2165      1.03232
     23       0.0102      0.21147
     24       0.1118     -0.02573
     25       0.1266     -0.00924
     26       1.0510      0.00000
     27       1.6777      0.00000
     28       2.7613      0.00000
     29       3.2002      0.00000
     30       3.6259      0.00000
     31       5.5478      0.00000
     32       5.8991      0.00000
     33       7.7149      0.00000

 k-point  13 :       0.3333    0.3333    0.0000
  band No.  band energies     occupation 
      1      -4.4128      1.00000
      2      -3.6780      1.00000
      3      -3.4332      1.00000
      4      -3.1382      1.00000
      5      -3.0924      1.00000
      6      -3.0531      1.00000
      7      -2.8751      1.00000
      8      -2.7012      1.00000
      9      -2.4509      1.00000
     10      -2.2006      1.00000
     11      -2.1930      1.00000
     12      -1.7619      1.00000
     13      -1.6756      1.00000
     14      -0.7873      1.00000
     15      -0.7623      1.00000
     16      -0.7376      1.00000
     17      -0.6911      1.00000
     18      -0.6887      1.00000
     19      -0.5246      1.00000
     20      -0.3867      1.00854
     21      -0.3595      1.02405
     22      -0.2811      1.04951
     23      -0.2578      1.03588
     24      -0.0141      0.28147
     25       0.0465     -0.01698
     26       0.2219      0.00000
     27       1.2186      0.00000
     28       2.6830      0.00000
     29       4.5640      0.00000
     30       6.0411      0.00000
     31       6.7007      0.00000
     32       7.4543      0.00000
     33       8.6394      0.00000

 k-point  14 :       0.4444    0.3333    0.0000
  band No.  band energies     occupation 
      1      -4.0003      1.00000
      2      -3.7192      1.00000
      3      -3.4370      1.00000
      4      -3.2899      1.00000
      5      -3.2195      1.00000
      6      -3.0807      1.00000
      7      -3.0451      1.00000
      8      -2.7812      1.00000
      9      -2.6544      1.00000
     10      -2.3653      1.00000
     11      -1.9792      1.00000
     12      -1.4943      1.00000
     13      -1.3429      1.00000
     14      -0.7414      1.00000
     15      -0.7072      1.00000
     16      -0.5499      1.00000
     17      -0.5067      1.00000
     18      -0.4315      1.00000
     19      -0.4159      1.00000
     20      -0.2853      1.03993
     21      -0.1645      0.98537
     22      -0.0086      0.37013
     23       0.0265      0.12075
     24       0.1279     -0.01228
     25       0.2707      0.00000
     26       1.5135      0.00000
     27       2.7630      0.00000
     28       3.8251      0.00000
     29       4.3888      0.00000
     30       5.0467      0.00000
     31       6.5736      0.00000
     32       7.0345      0.00000
     33       8.7827      0.00000

 k-point  15 :       0.4444    0.4444    0.0000
  band No.  band energies     occupation 
      1      -4.0524      1.00000
      2      -3.9460      1.00000
      3      -3.5696      1.00000
      4      -3.4052      1.00000
      5      -3.3973      1.00000
      6      -3.2089      1.00000
      7      -2.9791      1.00000
      8      -2.9195      1.00000
      9      -2.9034      1.00000
     10      -2.1520      1.00000
     11      -2.1100      1.00000
     12      -1.1430      1.00000
     13      -1.0983      1.00000
     14      -0.5790      1.00000
     15      -0.5125      1.00000
     16      -0.2385      1.00000
     17      -0.1626      1.00000
     18      -0.1200      1.00000
     19      -0.0953      1.00000
     20      -0.0120      0.48597
     21       0.0437      0.16198
     22       0.1460     -0.00696
     23       0.1982     -0.01650
     24       0.3917      0.00000
     25       0.4487      0.00000
     26       2.4972      0.00000
     27       3.7108      0.00000
     28       4.1757      0.00000
     29       5.4477      0.00000
     30       6.2148      0.00000
     31       7.7662      0.00000
     32       8.3691      0.00000
     33       9.5504      0.00000


--------------------------------------------------------------------------------------------------------


 soft charge-density along one line, spin component 1
         0         1         2         3         4         5         6         7         8         9
x    19.0401    0.6854   -0.7463   -0.0396    0.0566    0.0000
y    19.0401    0.6854   -0.7463   -0.0396    0.0566    0.0000
z    19.0401    3.7462   -0.2428    3.1261   -0.2029    1.7689    0.2226    0.6344    0.2176    0.1942
z     0.3119   -0.0603    0.0544   -0.2124    0.0337   -0.1590   -0.0661   -0.0571   -0.0563   -0.0619
z    -0.2607   -0.0513    0.0077   -0.0110   -0.0022    0.0045    0.0071    0.0045    0.0070    0.0124
z     0.0578    0.0168   -0.0043    0.0116   -0.0006    0.0022    0.0000
 total charge-density along one line
x    50.0000    5.5917   10.1882    0.4134   -0.0388   -0.0051    0.0167   -0.0016    0.0028   -0.0002
y    50.0000    5.5917   10.1882    0.4134   -0.0388   -0.0051    0.0167   -0.0016    0.0028   -0.0002
z    50.0000    9.9872   -0.4604    9.5352   -0.5600    7.2549    0.8102    4.6256    1.0228    3.9510
z    18.9049    3.8554   -0.7762    3.1623   -0.3795    1.5680    0.4453    0.6480    0.2791    0.6561
z     2.8131    0.5824   -0.1842    0.3129   -0.0438    0.0399    0.0196    0.0062   -0.0164    0.0041
z    -0.0114   -0.0086   -0.0008   -0.0016   -0.0023   -0.0028    0.0036    0.0004    0.0046    0.0082
z     0.0350    0.0115   -0.0042    0.0050   -0.0001    0.0001   -0.0015    0.0004   -0.0015   -0.0025
z    -0.0087   -0.0033    0.0011   -0.0008   -0.0002    0.0001    0.0009   -0.0004    0.0006    0.0011
z     0.0028    0.0012   -0.0001   -0.0001    0.0004   -0.0000   -0.0006    0.0003   -0.0002   -0.0007
z    -0.0016
 
 soft charge-density along one line, spin component 2
         0         1         2         3         4         5         6         7         8         9
x     0.1673    0.0832   -0.0458   -0.0018    0.0023    0.0000
y     0.1673    0.0832   -0.0458   -0.0018    0.0023    0.0000
z     0.1673    0.0331    0.0283    0.0598    0.0097    0.0712   -0.0028    0.0612    0.0058    0.0252
z     0.0878    0.0100   -0.0098   -0.0135    0.0016   -0.0196   -0.0031   -0.0167   -0.0066   -0.0150
z    -0.0756   -0.0160    0.0040   -0.0145    0.0032   -0.0004   -0.0009   -0.0020   -0.0011   -0.0009
z    -0.0038   -0.0006    0.0002   -0.0004    0.0002    0.0003    0.0000
 total charge-density along one line
x     3.0670    0.6122    0.9459    0.0466   -0.0275    0.0027    0.0014   -0.0003    0.0002   -0.0001
y     3.0670    0.6122    0.9459    0.0466   -0.0275    0.0027    0.0014   -0.0003    0.0002   -0.0001
z     3.0670    0.6072    0.0884    0.7153   -0.0093    0.6731    0.0744    0.4736    0.1589    0.3622
z     1.8091    0.3742   -0.0410    0.3456   -0.0299    0.1895    0.0607    0.0584    0.0601    0.0374
z     0.1490    0.0286    0.0055    0.0032    0.0088    0.0141   -0.0015   -0.0087   -0.0057   -0.0150
z    -0.0776   -0.0221    0.0092   -0.0211    0.0048    0.0015   -0.0035   -0.0015   -0.0022   -0.0016
z    -0.0046   -0.0007   -0.0000    0.0003   -0.0001   -0.0001    0.0003    0.0001    0.0002    0.0001
z     0.0002   -0.0000    0.0001   -0.0001    0.0000    0.0001   -0.0001   -0.0000   -0.0000    0.0000
z     0.0000    0.0000   -0.0000    0.0000   -0.0000   -0.0000    0.0000   -0.0000    0.0000   -0.0000
z    -0.0001
 
 pseudopotential strength for first ion, spin component: 1
 -8.626  -0.000  -0.000  -0.000   0.000   0.609   0.000   0.000
 -0.000  -8.559  -0.000   0.000   0.000   0.000   0.580   0.000
 -0.000  -0.000  -8.433  -0.000   0.000   0.000   0.000   0.527
 -0.000   0.000  -0.000  -8.559  -0.000   0.000  -0.000   0.000
  0.000   0.000   0.000  -0.000  -8.598  -0.000  -0.000  -0.000
  0.609   0.000   0.000   0.000  -0.000   1.063  -0.000  -0.000
  0.000   0.580   0.000  -0.000  -0.000  -0.000   1.075  -0.000
  0.000   0.000   0.527   0.000  -0.000  -0.000  -0.000   1.097
  0.000  -0.000   0.000   0.580   0.000  -0.000   0.000  -0.000
 -0.000  -0.000  -0.000   0.000   0.598   0.000   0.000   0.000
 -0.000   0.000  -0.018   0.000   0.000  -0.000   0.000   0.007
  0.000  -0.000   0.001  -0.000  -0.000  -0.000   0.000  -0.000
 -0.000  -0.012  -0.000   0.000  -0.000   0.000   0.007   0.000
  0.000   0.000  -0.012  -0.000  -0.000   0.000   0.000   0.006
  0.000   0.000   0.000  -0.012  -0.000  -0.000   0.000  -0.000
  0.000   0.009  -0.000  -0.000   0.000  -0.000  -0.004   0.000
 -0.000  -0.000   0.011   0.000   0.000   0.000   0.000  -0.004
 -0.000  -0.000  -0.000   0.009   0.000   0.000   0.000   0.000
 pseudopotential strength for first ion, spin component: 2
 -8.046  -0.000  -0.000  -0.000  -0.000   0.361   0.000   0.000
 -0.000  -7.944   0.000   0.000   0.000   0.000   0.320   0.000
 -0.000   0.000  -7.963  -0.000   0.000   0.000   0.000   0.326
 -0.000   0.000  -0.000  -7.944  -0.000   0.000  -0.000   0.000
 -0.000   0.000   0.000  -0.000  -8.024   0.000  -0.000  -0.000
  0.361   0.000   0.000   0.000   0.000   1.169  -0.000  -0.000
  0.000   0.320   0.000  -0.000  -0.000  -0.000   1.186  -0.000
  0.000   0.000   0.326   0.000  -0.000  -0.000  -0.000   1.184
  0.000  -0.000   0.000   0.320   0.000  -0.000   0.000  -0.000
  0.000  -0.000  -0.000   0.000   0.353  -0.000   0.000   0.000
 -0.000   0.000  -0.011   0.000   0.000  -0.000   0.000   0.004
  0.000  -0.000   0.001  -0.000  -0.000  -0.000   0.000  -0.000
 -0.000  -0.013   0.000   0.000   0.000   0.000   0.007  -0.000
  0.000  -0.000  -0.014  -0.000   0.000   0.000   0.000   0.007
 -0.000   0.000   0.000  -0.013  -0.000   0.000   0.000   0.000
 -0.000   0.009  -0.000  -0.000  -0.000  -0.000  -0.004   0.000
 -0.000   0.000   0.011  -0.000  -0.000   0.000  -0.000  -0.005
 -0.000  -0.000  -0.000   0.009   0.000   0.000   0.000   0.000
 total augmentation occupancy for first ion, spin component: 1
  1.766   0.000   0.159   0.000   0.027   0.092   0.000   0.068  -0.000   0.000  -0.352   0.069  -0.000   0.004  -0.000  -0.000
  0.000   1.762   0.000   0.112   0.000  -0.000   0.059   0.000   0.111   0.000  -0.000  -0.000   0.009  -0.000  -0.005  -0.010
  0.159   0.000   1.847   0.000   0.029   0.064   0.000  -0.010   0.000  -0.042  -0.005   0.030  -0.000   0.037   0.000  -0.000
  0.000   0.112   0.000   1.744  -0.000   0.000   0.111   0.000   0.002   0.000  -0.000  -0.000  -0.012  -0.000   0.021  -0.002
  0.027   0.000   0.029  -0.000   1.760   0.000  -0.000  -0.040  -0.000   0.006   0.092  -0.037   0.000  -0.022  -0.000   0.000
  0.092  -0.000   0.064   0.000   0.000   0.071   0.000  -0.005   0.000  -0.006  -0.111   0.029  -0.000  -0.025  -0.000  -0.000
  0.000   0.059   0.000   0.111  -0.000   0.000   0.057   0.000   0.011  -0.000  -0.000  -0.000   0.060  -0.000   0.023  -0.005
  0.068   0.000  -0.010   0.000  -0.040  -0.005   0.000   0.067   0.000  -0.006  -0.075   0.012   0.000   0.042   0.000  -0.000
 -0.000   0.111   0.000   0.002  -0.000   0.000   0.011   0.000   0.062  -0.000  -0.000  -0.000   0.023  -0.000   0.049  -0.002
  0.000   0.000  -0.042   0.000   0.006  -0.006  -0.000  -0.006  -0.000   0.071   0.075  -0.014  -0.000   0.005  -0.000  -0.000
 -0.352  -0.000  -0.005  -0.000   0.092  -0.111  -0.000  -0.075  -0.000   0.075   1.213  -0.292   0.000   0.111   0.000   0.000
  0.069  -0.000   0.030  -0.000  -0.037   0.029  -0.000   0.012  -0.000  -0.014  -0.292   0.095  -0.000  -0.052   0.000  -0.000
 -0.000   0.009  -0.000  -0.012   0.000  -0.000   0.060   0.000   0.023  -0.000   0.000  -0.000   0.198   0.000   0.082  -0.014
  0.004  -0.000   0.037  -0.000  -0.022  -0.025  -0.000   0.042  -0.000   0.005   0.111  -0.052   0.000   0.101  -0.000   0.000
 -0.000  -0.005   0.000   0.021  -0.000  -0.000   0.023   0.000   0.049  -0.000   0.000   0.000   0.082  -0.000   0.131  -0.005
 -0.000  -0.010  -0.000  -0.002   0.000  -0.000  -0.005  -0.000  -0.002  -0.000   0.000  -0.000  -0.014   0.000  -0.005   0.001
  0.002  -0.000  -0.012  -0.000   0.000   0.002  -0.000  -0.003  -0.000  -0.001  -0.018   0.007   0.000  -0.008   0.000  -0.000
  0.000  -0.002  -0.000  -0.010  -0.000  -0.000  -0.002   0.000  -0.003  -0.000  -0.000  -0.000  -0.005   0.000  -0.008   0.000
 total augmentation occupancy for first ion, spin component: 2
  0.117  -0.000  -0.052  -0.000  -0.009  -0.075   0.000   0.011   0.000   0.001   0.003  -0.004   0.000   0.003  -0.000   0.000
 -0.000   0.105   0.000  -0.099   0.000  -0.000  -0.063   0.000   0.020   0.000  -0.000   0.000  -0.004   0.000   0.003  -0.000
 -0.052   0.000   0.050   0.000  -0.015   0.012  -0.000  -0.040   0.000   0.005   0.020   0.001  -0.000  -0.010   0.000  -0.000
 -0.000  -0.099   0.000   0.195  -0.000  -0.000   0.020  -0.000  -0.083   0.000   0.000   0.000   0.008   0.000  -0.002   0.000
 -0.009   0.000  -0.015  -0.000   0.121   0.001  -0.000   0.005  -0.000  -0.065  -0.026   0.001   0.000   0.008   0.000  -0.000
 -0.075  -0.000   0.012  -0.000   0.001   0.008  -0.000  -0.006   0.000  -0.001   0.011  -0.004   0.000  -0.001  -0.000   0.000
  0.000  -0.063  -0.000   0.020  -0.000  -0.000   0.003   0.000  -0.011  -0.000  -0.000   0.000   0.000  -0.000  -0.001   0.000
  0.011   0.000  -0.040  -0.000   0.005  -0.006   0.000   0.002   0.000   0.001  -0.004  -0.002   0.000  -0.000   0.000  -0.000
  0.000   0.020   0.000  -0.083  -0.000   0.000  -0.011   0.000   0.011  -0.000  -0.000   0.000  -0.002   0.000  -0.002   0.000
  0.001   0.000   0.005   0.000  -0.065  -0.001  -0.000   0.001  -0.000   0.006   0.003   0.003   0.000  -0.001   0.000   0.000
  0.003  -0.000   0.020   0.000  -0.026   0.011  -0.000  -0.004  -0.000   0.003   0.003   0.029   0.000  -0.003   0.000   0.000
 -0.004   0.000   0.001   0.000   0.001  -0.004   0.000  -0.002   0.000   0.003   0.029  -0.013   0.000   0.003   0.000  -0.000
  0.000  -0.004  -0.000   0.008   0.000   0.000   0.000   0.000  -0.002   0.000   0.000   0.000  -0.009   0.000  -0.005   0.001
  0.003   0.000  -0.010   0.000   0.008  -0.001  -0.000  -0.000   0.000  -0.001  -0.003   0.003   0.000  -0.006   0.000  -0.000
 -0.000   0.003   0.000  -0.002   0.000  -0.000  -0.001   0.000  -0.002   0.000   0.000   0.000  -0.005   0.000  -0.009   0.001
  0.000  -0.000  -0.000   0.000  -0.000   0.000   0.000  -0.000   0.000   0.000   0.000  -0.000   0.001  -0.000   0.001  -0.000
 -0.000  -0.000  -0.000  -0.000  -0.000  -0.000   0.000   0.000  -0.000   0.000   0.000  -0.001   0.000   0.001   0.000  -0.000
  0.000   0.000  -0.000  -0.000   0.000  -0.000   0.000   0.000   0.000   0.000   0.000  -0.000   0.001   0.000   0.001  -0.000


------------------------ aborting loop because EDIFF is reached ----------------------------------------


 


 total charge     
 
# of ion     s       p       d       tot
----------------------------------------
  1        0.466   0.326   8.334   9.126
  2        0.490   0.480   8.328   9.299
  3        0.494   0.482   8.335   9.311
  4        0.500   0.500   8.345   9.345
  5        0.477   0.346   8.343   9.167
------------------------------------------------
tot        2.427   2.134  41.686  46.246
 


 magnetization (x)
 
# of ion     s       p       d       tot
----------------------------------------
  1       -0.003  -0.019   0.710   0.688
  2       -0.008  -0.023   0.614   0.583
  3       -0.007  -0.024   0.614   0.583
  4       -0.008  -0.023   0.608   0.577
  5       -0.004  -0.019   0.700   0.677
------------------------------------------------
tot       -0.029  -0.108   3.245   3.108
 


--------------------------------------------------------------------------------------------------------


    CHARGE:  VPU time    9.64: CPU time    9.64
    FORLOC:  VPU time    0.08: CPU time    0.08
    FORNL :  VPU time   78.93: CPU time   78.93
    STRESS:  VPU time  244.28: CPU time   61.87
    FORCOR:  VPU time    7.76: CPU time    7.76
    FORHAR:  VPU time    0.30: CPU time    0.30
    MIXING:  VPU time    0.11: CPU time    0.11


--------------------------------------------------------------------------------------------------------



  FREE ENERGIE OF THE ION-ELECTRON SYSTEM (eV)
  ---------------------------------------------------
  free  energy   TOTEN  =       -25.570707 eV

  energy  without entropy=      -25.570707  energy(sigma->0) =      -25.570707
 

  FORCE on cell =-STRESS in cart. coord.  units (eV/reduce length):
  Direction    X        Y        Z        XY       YZ       ZX
  --------------------------------------------------------------------------------------
  Alpha Z    228.18    228.18    228.18
  Ewald    12495.49  12495.49 -15562.12     -0.00     -0.00      0.00
  Hartree  13996.95  13996.95 -13209.86     -0.00     -0.00     -0.00
  E(xc)     -275.79   -275.79   -276.28      0.00     -0.00     -0.00
  Local   -26927.42 -26927.42  28334.27     -0.00      0.00      0.00
  n-local   -167.62   -170.12   -170.26     -8.05      0.00      0.00
  augment    259.11    259.11    261.35      0.00     -0.00     -0.00
  Kinetic    383.12    394.33    392.80      7.60     -0.00     -0.00
  -------------------------------------------------------------------------------------
  Total       -3.63     -3.63     -1.92      0.00      0.00      0.00
  in kB      -52.82    -52.82    -27.94      0.00      0.00      0.00
  external pressure =      -44.52 kB  Pullay stress =        0.00 kB


 VOLUME and BASIS-vectors are now :
 -----------------------------------------------------------------------------
  energy-cutoff  :      270.00
  volume of cell :      109.97
      direct lattice vectors                 reciprocal lattice vectors
     1.765000000  1.765000000  0.000000000     0.283286119  0.283286119  0.000000000
    -1.765000000  1.765000000  0.000000000    -0.283286119  0.283286119  0.000000000
     0.000000000  0.000000000 17.650000000     0.000000000  0.000000000  0.056657224

  length of vectors
     2.496086938  2.496086938 17.650000000     0.400627071  0.400627071  0.056657224


 FORCES acting on ions
    electron-ion (+dipol)            ewald-force                    non-local-force                 convergence-correction
 -----------------------------------------------------------------------------------------------
   -.251E-12 -.331E-12 0.286E+04   0.755E-14 -.843E-14 -.286E+04   -.620E-24 -.207E-24 -.257E+01   -.296E-13 0.478E-13 -.361E-01
   -.834E-12 0.265E-12 0.146E+04   0.809E-14 -.223E-13 -.146E+04   0.000E+00 0.000E+00 -.169E+00   0.103E-13 0.466E-13 -.670E+00
   -.203E-12 -.320E-12 0.128E+02   0.546E-14 -.428E-13 -.119E+02   0.000E+00 0.000E+00 0.495E-01   -.350E-13 0.313E-13 -.937E+00
   0.945E-05 0.945E-05 -.145E+04   0.340E-14 -.666E-14 0.145E+04   -.414E-24 0.000E+00 0.195E+00   -.121E-13 0.436E-13 0.315E-01
   -.479E-04 -.479E-04 -.289E+04   0.201E-13 -.314E-13 0.289E+04   -.124E-23 -.414E-24 0.236E+01   0.221E-13 0.556E-13 0.561E+00
 -----------------------------------------------------------------------------------------------
   -.385E-04 -.385E-04 0.118E+01   0.446E-13 -.112E-12 0.909E-12   -.227E-23 -.620E-24 -.134E+00   -.443E-13 0.225E-12 -.105E+01
 
 
 POSITION                                       TOTAL-FORCE (eV/Angst)
 -----------------------------------------------------------------------------------
      0.00000      0.00000      0.00000         0.000000      0.000000      0.389635
      0.00000      1.76500      1.76500         0.000000      0.000000     -0.387774
      0.00000      0.00000      3.53000         0.000000      0.000000     -0.003257
      0.00000      1.76500      5.30196         0.000000      0.000000     -0.000261
      0.00000      0.00000      6.98746         0.000000      0.000000      0.001658
 -----------------------------------------------------------------------------------
    total drift:                               -0.000038     -0.000038     -0.000426


--------------------------------------------------------------------------------------------------------



 mean value of Nose-termostat <S>:     1.000 mean value of <T> :     0.000
 mean temperature <T/S>/<1/S>  :     0.000

 writing wavefunctions
     LOOP+:  VPU time 2122.60: CPU time 1069.22
 


 total charge     
 
# of ion     s       p       d       tot
----------------------------------------
  1        0.466   0.326   8.334   9.126
  2        0.490   0.480   8.328   9.299
  3        0.494   0.482   8.335   9.311
  4        0.500   0.500   8.345   9.345
  5        0.477   0.346   8.343   9.167
------------------------------------------------
tot        2.427   2.134  41.686  46.246
 


 magnetization (x)
 
# of ion     s       p       d       tot
----------------------------------------
  1       -0.003  -0.019   0.710   0.688
  2       -0.008  -0.023   0.614   0.583
  3       -0.007  -0.024   0.614   0.583
  4       -0.008  -0.023   0.608   0.577
  5       -0.004  -0.019   0.700   0.677
------------------------------------------------
tot       -0.029  -0.108   3.245   3.108
 
 BZINTS: Fermi energy: -0.055695; 50.000000 electrons
         Band energy:-106.620542;  BLOECHL correction: -0.111340
  
  
 General timing and accounting informations for this job:
 ========================================================
  
                  Total CPU time used (sec):     2169.807
                            User time (sec):     2050.452
                          System time (sec):      119.355
                         Elapsed time (sec):     1098.057
  
                   Maximum memory used (kb):           0.
                   Average memory used (kb):           0.
  
                          Minor page faults:            0
                          Major page faults:            0
                 Voluntary context switches:      6546398
