PROCAR lm decomposed
# of k-points:   15         # of bands:  33         # of ions:   5

 k-point    1 :    0.00000000 0.00000000 0.00000000     weight = 0.01234568

band   1 # energy   -8.52753070 # occ.  2.00000000
 
ion      s     py     pz     px    dxy    dyz    dz2    dxz    dx2    tot
  1  0.041  0.000  0.006  0.000  0.000  0.000  0.000  0.000  0.000  0.047
  2  0.163  0.000  0.003  0.000  0.000  0.000  0.000  0.000  0.000  0.167
  3  0.248  0.000  0.000  0.000  0.000  0.000  0.000  0.000  0.000  0.249
  4  0.196  0.000  0.002  0.000  0.000  0.000  0.000  0.000  0.000  0.199
  5  0.058  0.000  0.009  0.000  0.000  0.000  0.000  0.000  0.000  0.067
tot  0.706  0.000  0.021  0.000  0.000  0.000  0.001  0.000  0.000  0.728
 
band   2 # energy   -7.34888976 # occ.  2.00000000
 
ion      s     py     pz     px    dxy    dyz    dz2    dxz    dx2    tot
  1  0.135  0.000  0.012  0.000  0.000  0.000  0.001  0.000  0.000  0.147
  2  0.192  0.000  0.005  0.000  0.000  0.000  0.006  0.000  0.000  0.203
  3  0.001  0.000  0.037  0.000  0.000  0.000  0.000  0.000  0.000  0.038
  4  0.169  0.000  0.008  0.000  0.000  0.000  0.006  0.000  0.000  0.183
  5  0.138  0.000  0.011  0.000  0.000  0.000  0.001  0.000  0.000  0.151
tot  0.635  0.000  0.073  0.000  0.000  0.000  0.014  0.000  0.000  0.722
 
band   3 # energy   -5.67690037 # occ.  2.00000000
 
ion      s     py     pz     px    dxy    dyz    dz2    dxz    dx2    tot
  1  0.158  0.000  0.001  0.000  0.000  0.000  0.021  0.000  0.000  0.180
  2  0.003  0.000  0.060  0.000  0.000  0.000  0.003  0.000  0.000  0.067
  3  0.163  0.000  0.000  0.000  0.000  0.000  0.064  0.000  0.000  0.227
  4  0.002  0.000  0.061  0.000  0.000  0.000  0.002  0.000  0.000  0.065
  5  0.146  0.000  0.001  0.000  0.000  0.000  0.023  0.000  0.000  0.170
tot  0.473  0.000  0.123  0.000  0.000  0.000  0.113  0.000  0.000  0.709
 
band   4 # energy   -4.53329425 # occ.  2.00000000
 
ion      s     py     pz     px    dxy    dyz    dz2    dxz    dx2    tot
  1  0.029  0.000  0.001  0.000  0.000  0.000  0.030  0.000  0.000  0.060
  2  0.012  0.000  0.010  0.000  0.000  0.000  0.014  0.000  0.000  0.036
  3  0.003  0.000  0.024  0.000  0.000  0.000  0.045  0.000  0.000  0.072
  4  0.047  0.000  0.011  0.000  0.000  0.000  0.290  0.000  0.000  0.349
  5  0.085  0.000  0.010  0.000  0.000  0.000  0.187  0.000  0.000  0.282
tot  0.176  0.000  0.058  0.000  0.000  0.000  0.565  0.000  0.000  0.799
 
band   5 # energy   -4.45029617 # occ.  2.00000000
 
ion      s     py     pz     px    dxy    dyz    dz2    dxz    dx2    tot
  1  0.064  0.000  0.008  0.000  0.000  0.000  0.148  0.000  0.000  0.221
  2  0.041  0.000  0.003  0.000  0.000  0.000  0.314  0.000  0.000  0.358
  3  0.009  0.000  0.007  0.000  0.000  0.000  0.177  0.000  0.000  0.194
  4  0.000  0.000  0.003  0.000  0.000  0.000  0.051  0.000  0.000  0.054
  5  0.000  0.000  0.001  0.000  0.000  0.000  0.007  0.000  0.000  0.007
tot  0.115  0.000  0.022  0.000  0.000  0.000  0.697  0.000  0.000  0.834
 
band   6 # energy   -4.00504541 # occ.  2.00000000
 
ion      s     py     pz     px    dxy    dyz    dz2    dxz    dx2    tot
  1  0.000  0.000  0.000  0.000  0.031  0.000  0.000  0.000  0.000  0.031
  2  0.000  0.000  0.000  0.000  0.172  0.000  0.000  0.000  0.000  0.172
  3  0.000  0.000  0.000  0.000  0.322  0.000  0.000  0.000  0.000  0.322
  4  0.000  0.000  0.000  0.000  0.321  0.000  0.000  0.000  0.000  0.321
  5  0.000  0.000  0.000  0.000  0.096  0.000  0.000  0.000  0.000  0.096
tot  0.000  0.000  0.000  0.000  0.942  0.000  0.000  0.000  0.000  0.942
 
band   7 # energy   -3.64625446 # occ.  2.00000000
 
ion      s     py     pz     px    dxy    dyz    dz2    dxz    dx2    tot
  1  0.000  0.000  0.000  0.000  0.164  0.000  0.000  0.000  0.000  0.164
  2  0.000  0.000  0.000  0.000  0.352  0.000  0.000  0.000  0.000  0.352
  3  0.000  0.000  0.000  0.000  0.022  0.000  0.000  0.000  0.000  0.022
  4  0.000  0.000  0.000  0.000  0.226  0.000  0.000  0.000  0.000  0.226
  5  0.000  0.000  0.000  0.000  0.183  0.000  0.000  0.000  0.000  0.183
tot  0.000  0.000  0.000  0.000  0.947  0.000  0.000  0.000  0.000  0.947
 
band   8 # energy   -3.13350881 # occ.  2.00000000
 
ion      s     py     pz     px    dxy    dyz    dz2    dxz    dx2    tot
  1  0.000  0.000  0.000  0.000  0.327  0.000  0.000  0.000  0.000  0.327
  2  0.000  0.000  0.000  0.000  0.023  0.000  0.000  0.000  0.000  0.023
  3  0.000  0.000  0.000  0.000  0.371  0.000  0.000  0.000  0.000  0.371
  4  0.000  0.000  0.000  0.000  0.003  0.000  0.000  0.000  0.000  0.003
  5  0.000  0.000  0.000  0.000  0.231  0.000  0.000  0.000  0.000  0.231
tot  0.000  0.000  0.000  0.000  0.955  0.000  0.000  0.000  0.000  0.955
 
band   9 # energy   -2.65674251 # occ.  2.00000000
 
ion      s     py     pz     px    dxy    dyz    dz2    dxz    dx2    tot
  1  0.000  0.000  0.000  0.000  0.317  0.000  0.000  0.000  0.000  0.317
  2  0.000  0.000  0.000  0.000  0.204  0.000  0.000  0.000  0.000  0.204
  3  0.000  0.000  0.000  0.000  0.001  0.000  0.000  0.000  0.000  0.001
  4  0.000  0.000  0.000  0.000  0.164  0.000  0.000  0.000  0.000  0.164
  5  0.000  0.000  0.000  0.000  0.279  0.000  0.000  0.000  0.000  0.279
tot  0.000  0.000  0.000  0.000  0.965  0.000  0.000  0.000  0.000  0.965
 
band  10 # energy   -2.42048579 # occ.  2.00000000
 
ion      s     py     pz     px    dxy    dyz    dz2    dxz    dx2    tot
  1  0.000  0.000  0.000  0.000  0.118  0.000  0.000  0.000  0.000  0.118
  2  0.000  0.000  0.000  0.000  0.205  0.000  0.000  0.000  0.000  0.205
  3  0.000  0.000  0.000  0.000  0.240  0.000  0.000  0.000  0.000  0.240
  4  0.000  0.000  0.000  0.000  0.242  0.000  0.000  0.000  0.000  0.242
  5  0.000  0.000  0.000  0.000  0.168  0.000  0.000  0.000  0.000  0.168
tot  0.000  0.000  0.000  0.000  0.974  0.000  0.000  0.000  0.000  0.974
 
band  11 # energy   -2.28411364 # occ.  2.00000000
 
ion      s     py     pz     px    dxy    dyz    dz2    dxz    dx2    tot
  1  0.000  0.000  0.000  0.000  0.000  0.014  0.000  0.014  0.000  0.029
  2  0.000  0.000  0.000  0.000  0.000  0.099  0.000  0.099  0.000  0.198
  3  0.000  0.000  0.000  0.000  0.000  0.173  0.000  0.173  0.000  0.346
  4  0.000  0.000  0.000  0.000  0.000  0.167  0.000  0.167  0.000  0.334
  5  0.000  0.001  0.000  0.001  0.000  0.035  0.000  0.035  0.000  0.070
tot  0.000  0.001  0.000  0.001  0.000  0.488  0.000  0.488  0.000  0.978
 
band  12 # energy   -2.28411335 # occ.  2.00000000
 
ion      s     py     pz     px    dxy    dyz    dz2    dxz    dx2    tot
  1  0.000  0.000  0.000  0.000  0.000  0.014  0.000  0.014  0.000  0.029
  2  0.000  0.000  0.000  0.000  0.000  0.099  0.000  0.099  0.000  0.198
  3  0.000  0.000  0.000  0.000  0.000  0.173  0.000  0.173  0.000  0.346
  4  0.000  0.000  0.000  0.000  0.000  0.167  0.000  0.167  0.000  0.334
  5  0.000  0.001  0.000  0.001  0.000  0.035  0.000  0.035  0.000  0.070
tot  0.000  0.001  0.000  0.001  0.000  0.488  0.000  0.488  0.000  0.978
 
band  13 # energy   -1.91157798 # occ.  2.00000000
 
ion      s     py     pz     px    dxy    dyz    dz2    dxz    dx2    tot
  1  0.000  0.001  0.000  0.001  0.000  0.069  0.000  0.069  0.000  0.139
  2  0.000  0.000  0.000  0.000  0.000  0.194  0.000  0.194  0.000  0.388
  3  0.000  0.002  0.000  0.002  0.000  0.007  0.000  0.007  0.000  0.017
  4  0.000  0.000  0.000  0.000  0.000  0.140  0.000  0.140  0.000  0.282
  5  0.000  0.001  0.000  0.001  0.000  0.076  0.000  0.076  0.000  0.153
tot  0.000  0.003  0.000  0.003  0.000  0.486  0.000  0.486  0.000  0.978
 
band  14 # energy   -1.91157769 # occ.  2.00000000
 
ion      s     py     pz     px    dxy    dyz    dz2    dxz    dx2    tot
  1  0.000  0.001  0.000  0.001  0.000  0.069  0.000  0.069  0.000  0.139
  2  0.000  0.000  0.000  0.000  0.000  0.194  0.000  0.194  0.000  0.388
  3  0.000  0.002  0.000  0.002  0.000  0.007  0.000  0.007  0.000  0.017
  4  0.000  0.000  0.000  0.000  0.000  0.140  0.000  0.140  0.000  0.282
  5  0.000  0.001  0.000  0.001  0.000  0.076  0.000  0.076  0.000  0.153
tot  0.000  0.003  0.000  0.003  0.000  0.486  0.000  0.486  0.000  0.978
 
band  15 # energy   -1.74016761 # occ.  2.00000000
 
ion      s     py     pz     px    dxy    dyz    dz2    dxz    dx2    tot
  1  0.013  0.000  0.000  0.000  0.000  0.000  0.255  0.000  0.000  0.268
  2  0.000  0.000  0.009  0.000  0.000  0.000  0.005  0.000  0.000  0.014
  3  0.014  0.000  0.000  0.000  0.000  0.000  0.392  0.000  0.000  0.406
  4  0.000  0.000  0.010  0.000  0.000  0.000  0.029  0.000  0.000  0.039
  5  0.015  0.000  0.000  0.000  0.000  0.000  0.162  0.000  0.000  0.178
tot  0.042  0.000  0.020  0.000  0.000  0.000  0.843  0.000  0.000  0.905
 
band  16 # energy   -1.46539425 # occ.  2.00000000
 
ion      s     py     pz     px    dxy    dyz    dz2    dxz    dx2    tot
  1  0.000  0.000  0.000  0.000  0.000  0.000  0.266  0.000  0.000  0.266
  2  0.002  0.000  0.000  0.000  0.000  0.000  0.279  0.000  0.000  0.282
  3  0.000  0.000  0.002  0.000  0.000  0.000  0.015  0.000  0.000  0.017
  4  0.001  0.000  0.000  0.000  0.000  0.000  0.138  0.000  0.000  0.139
  5  0.002  0.000  0.000  0.000  0.000  0.000  0.249  0.000  0.000  0.251
tot  0.006  0.000  0.002  0.000  0.000  0.000  0.947  0.000  0.000  0.955
 
band  17 # energy   -1.31775931 # occ.  2.00000000
 
ion      s     py     pz     px    dxy    dyz    dz2    dxz    dx2    tot
  1  0.000  0.000  0.000  0.000  0.000  0.147  0.000  0.147  0.000  0.294
  2  0.000  0.002  0.000  0.002  0.000  0.018  0.000  0.018  0.000  0.040
  3  0.000  0.000  0.000  0.000  0.000  0.192  0.000  0.192  0.000  0.384
  4  0.000  0.002  0.000  0.002  0.000  0.005  0.000  0.005  0.000  0.014
  5  0.000  0.000  0.000  0.000  0.000  0.124  0.000  0.124  0.000  0.248
tot  0.000  0.004  0.000  0.004  0.000  0.486  0.000  0.486  0.000  0.980
 
band  18 # energy   -1.31775896 # occ.  2.00000000
 
ion      s     py     pz     px    dxy    dyz    dz2    dxz    dx2    tot
  1  0.000  0.000  0.000  0.000  0.000  0.147  0.000  0.147  0.000  0.294
  2  0.000  0.002  0.000  0.002  0.000  0.018  0.000  0.018  0.000  0.040
  3  0.000  0.000  0.000  0.000  0.000  0.192  0.000  0.192  0.000  0.384
  4  0.000  0.002  0.000  0.002  0.000  0.005  0.000  0.005  0.000  0.014
  5  0.000  0.000  0.000  0.000  0.000  0.124  0.000  0.124  0.000  0.248
tot  0.000  0.004  0.000  0.004  0.000  0.486  0.000  0.486  0.000  0.980
 
band  19 # energy   -1.27960502 # occ.  2.00000000
 
ion      s     py     pz     px    dxy    dyz    dz2    dxz    dx2    tot
  1  0.001  0.000  0.001  0.000  0.000  0.000  0.127  0.000  0.000  0.130
  2  0.000  0.000  0.000  0.000  0.000  0.000  0.132  0.000  0.000  0.132
  3  0.000  0.000  0.001  0.000  0.000  0.000  0.207  0.000  0.000  0.208
  4  0.000  0.000  0.000  0.000  0.000  0.000  0.291  0.000  0.000  0.292
  5  0.000  0.000  0.000  0.000  0.000  0.000  0.202  0.000  0.000  0.202
tot  0.003  0.000  0.003  0.000  0.000  0.000  0.959  0.000  0.000  0.964
 
band  20 # energy   -1.23456619 # occ.  2.00000000
 
ion      s     py     pz     px    dxy    dyz    dz2    dxz    dx2    tot
  1  0.000  0.000  0.000  0.000  0.000  0.000  0.000  0.000  0.014  0.014
  2  0.000  0.000  0.000  0.000  0.000  0.000  0.000  0.000  0.123  0.123
  3  0.000  0.000  0.000  0.000  0.000  0.000  0.000  0.000  0.254  0.254
  4  0.000  0.000  0.000  0.000  0.000  0.000  0.000  0.000  0.484  0.484
  5  0.000  0.000  0.000  0.000  0.000  0.000  0.000  0.000  0.114  0.114
tot  0.000  0.000  0.000  0.000  0.000  0.000  0.000  0.000  0.989  0.989
 
band  21 # energy   -1.16880916 # occ.  2.00000000
 
ion      s     py     pz     px    dxy    dyz    dz2    dxz    dx2    tot
  1  0.038  0.000  0.019  0.000  0.000  0.000  0.071  0.000  0.000  0.128
  2  0.037  0.000  0.016  0.000  0.000  0.000  0.157  0.000  0.000  0.210
  3  0.000  0.000  0.066  0.000  0.000  0.000  0.002  0.000  0.000  0.068
  4  0.035  0.000  0.017  0.000  0.000  0.000  0.093  0.000  0.000  0.146
  5  0.038  0.000  0.020  0.000  0.000  0.000  0.088  0.000  0.000  0.146
tot  0.148  0.000  0.138  0.000  0.000  0.000  0.411  0.000  0.000  0.697
 
band  22 # energy   -1.07459020 # occ.  2.00000000
 
ion      s     py     pz     px    dxy    dyz    dz2    dxz    dx2    tot
  1  0.000  0.000  0.000  0.000  0.000  0.000  0.000  0.000  0.127  0.127
  2  0.000  0.000  0.000  0.000  0.000  0.000  0.000  0.000  0.501  0.501
  3  0.000  0.000  0.000  0.000  0.000  0.000  0.000  0.000  0.061  0.061
  4  0.000  0.000  0.000  0.000  0.000  0.000  0.000  0.000  0.193  0.193
  5  0.000  0.000  0.000  0.000  0.000  0.000  0.000  0.000  0.107  0.107
tot  0.000  0.000  0.000  0.000  0.000  0.000  0.000  0.000  0.990  0.990
 
band  23 # energy   -0.80371731 # occ.  2.00000000
 
ion      s     py     pz     px    dxy    dyz    dz2    dxz    dx2    tot
  1  0.000  0.000  0.000  0.000  0.000  0.000  0.000  0.000  0.270  0.270
  2  0.000  0.000  0.000  0.000  0.000  0.000  0.000  0.000  0.050  0.050
  3  0.000  0.000  0.000  0.000  0.000  0.000  0.000  0.000  0.457  0.457
  4  0.000  0.000  0.000  0.000  0.000  0.000  0.000  0.000  0.004  0.004
  5  0.000  0.000  0.000  0.000  0.000  0.000  0.000  0.000  0.209  0.209
tot  0.000  0.000  0.000  0.000  0.000  0.000  0.000  0.000  0.991  0.991
 
band  24 # energy   -0.79144151 # occ.  2.00000000
 
ion      s     py     pz     px    dxy    dyz    dz2    dxz    dx2    tot
  1  0.000  0.000  0.000  0.000  0.000  0.176  0.000  0.176  0.000  0.352
  2  0.000  0.001  0.000  0.001  0.000  0.074  0.000  0.074  0.000  0.149
  3  0.000  0.001  0.000  0.001  0.000  0.000  0.000  0.000  0.000  0.002
  4  0.000  0.001  0.000  0.001  0.000  0.074  0.000  0.074  0.000  0.150
  5  0.000  0.000  0.000  0.000  0.000  0.166  0.000  0.166  0.000  0.333
tot  0.000  0.002  0.000  0.002  0.000  0.490  0.000  0.490  0.000  0.984
 
band  25 # energy   -0.79144118 # occ.  2.00000000
 
ion      s     py     pz     px    dxy    dyz    dz2    dxz    dx2    tot
  1  0.000  0.000  0.000  0.000  0.000  0.176  0.000  0.176  0.000  0.352
  2  0.000  0.001  0.000  0.001  0.000  0.074  0.000  0.074  0.000  0.149
  3  0.000  0.001  0.000  0.001  0.000  0.000  0.000  0.000  0.000  0.002
  4  0.000  0.001  0.000  0.001  0.000  0.074  0.000  0.074  0.000  0.150
  5  0.000  0.000  0.000  0.000  0.000  0.166  0.000  0.166  0.000  0.333
tot  0.000  0.002  0.000  0.002  0.000  0.490  0.000  0.490  0.000  0.984
 
band  26 # energy   -0.63038584 # occ.  2.00000000
 
ion      s     py     pz     px    dxy    dyz    dz2    dxz    dx2    tot
  1  0.000  0.000  0.000  0.000  0.000  0.000  0.000  0.000  0.352  0.352
  2  0.000  0.000  0.000  0.000  0.000  0.000  0.000  0.000  0.110  0.110
  3  0.000  0.000  0.000  0.000  0.000  0.000  0.000  0.000  0.001  0.001
  4  0.000  0.000  0.000  0.000  0.000  0.000  0.000  0.000  0.150  0.150
  5  0.000  0.000  0.000  0.000  0.000  0.000  0.000  0.000  0.379  0.379
tot  0.000  0.000  0.000  0.000  0.000  0.000  0.000  0.000  0.992  0.992
 
band  27 # energy   -0.56054501 # occ.  2.00000000
 
ion      s     py     pz     px    dxy    dyz    dz2    dxz    dx2    tot
  1  0.000  0.000  0.000  0.000  0.000  0.000  0.000  0.000  0.227  0.227
  2  0.000  0.000  0.000  0.000  0.000  0.000  0.000  0.000  0.206  0.206
  3  0.000  0.000  0.000  0.000  0.000  0.000  0.000  0.000  0.218  0.218
  4  0.000  0.000  0.000  0.000  0.000  0.000  0.000  0.000  0.160  0.160
  5  0.000  0.000  0.000  0.000  0.000  0.000  0.000  0.000  0.183  0.183
tot  0.000  0.000  0.000  0.000  0.000  0.000  0.000  0.000  0.993  0.993
 
band  28 # energy   -0.51772327 # occ.  2.00000000
 
ion      s     py     pz     px    dxy    dyz    dz2    dxz    dx2    tot
  1  0.000  0.000  0.000  0.000  0.000  0.084  0.000  0.084  0.000  0.168
  2  0.000  0.000  0.000  0.000  0.000  0.104  0.000  0.104  0.000  0.208
  3  0.000  0.000  0.000  0.000  0.000  0.117  0.000  0.117  0.000  0.234
  4  0.000  0.000  0.000  0.000  0.000  0.102  0.000  0.102  0.000  0.204
  5  0.000  0.000  0.000  0.000  0.000  0.089  0.000  0.089  0.000  0.178
tot  0.000  0.001  0.000  0.001  0.000  0.495  0.000  0.495  0.000  0.991
 
band  29 # energy   -0.51772293 # occ.  2.05960283
 
ion      s     py     pz     px    dxy    dyz    dz2    dxz    dx2    tot
  1  0.000  0.000  0.000  0.000  0.000  0.084  0.000  0.084  0.000  0.168
  2  0.000  0.000  0.000  0.000  0.000  0.104  0.000  0.104  0.000  0.208
  3  0.000  0.000  0.000  0.000  0.000  0.117  0.000  0.117  0.000  0.234
  4  0.000  0.000  0.000  0.000  0.000  0.102  0.000  0.102  0.000  0.204
  5  0.000  0.000  0.000  0.000  0.000  0.089  0.000  0.089  0.000  0.178
tot  0.000  0.001  0.000  0.001  0.000  0.495  0.000  0.495  0.000  0.991
 
band  30 # energy    0.56441024 # occ.  0.00000000
 
ion      s     py     pz     px    dxy    dyz    dz2    dxz    dx2    tot
  1  0.004  0.000  0.107  0.000  0.000  0.000  0.000  0.000  0.000  0.111
  2  0.022  0.000  0.044  0.000  0.000  0.000  0.032  0.000  0.000  0.098
  3  0.038  0.000  0.001  0.000  0.000  0.000  0.040  0.000  0.000  0.078
  4  0.026  0.000  0.027  0.000  0.000  0.000  0.044  0.000  0.000  0.097
  5  0.004  0.000  0.089  0.000  0.000  0.000  0.001  0.000  0.000  0.093
tot  0.093  0.000  0.268  0.000  0.000  0.000  0.117  0.000  0.000  0.478
 
band  31 # energy    1.92455284 # occ.  0.00000000
 
ion      s     py     pz     px    dxy    dyz    dz2    dxz    dx2    tot
  1  0.004  0.000  0.068  0.000  0.000  0.000  0.012  0.000  0.000  0.083
  2  0.002  0.000  0.094  0.000  0.000  0.000  0.001  0.000  0.000  0.097
  3  0.000  0.000  0.112  0.000  0.000  0.000  0.000  0.000  0.000  0.112
  4  0.000  0.000  0.111  0.000  0.000  0.000  0.000  0.000  0.000  0.111
  5  0.004  0.000  0.087  0.000  0.000  0.000  0.018  0.000  0.000  0.109
tot  0.010  0.000  0.472  0.000  0.000  0.000  0.030  0.000  0.000  0.513
 
band  32 # energy    4.89384992 # occ.  0.00000000
 
ion      s     py     pz     px    dxy    dyz    dz2    dxz    dx2    tot
  1  0.009  0.000  0.009  0.000  0.000  0.000  0.007  0.000  0.000  0.026
  2  0.006  0.000  0.002  0.000  0.000  0.000  0.004  0.000  0.000  0.012
  3  0.005  0.000  0.000  0.000  0.000  0.000  0.004  0.000  0.000  0.009
  4  0.006  0.000  0.002  0.000  0.000  0.000  0.005  0.000  0.000  0.012
  5  0.008  0.000  0.011  0.000  0.000  0.000  0.006  0.000  0.000  0.025
tot  0.033  0.000  0.025  0.000  0.000  0.000  0.026  0.000  0.000  0.084
 
band  33 # energy    5.96507849 # occ.  0.00000000
 
ion      s     py     pz     px    dxy    dyz    dz2    dxz    dx2    tot
  1  0.010  0.000  0.028  0.000  0.000  0.000  0.008  0.000  0.000  0.046
  2  0.002  0.000  0.017  0.000  0.000  0.000  0.002  0.000  0.000  0.021
  3  0.000  0.000  0.014  0.000  0.000  0.000  0.000  0.000  0.000  0.014
  4  0.002  0.000  0.017  0.000  0.000  0.000  0.002  0.000  0.000  0.021
  5  0.008  0.000  0.030  0.000  0.000  0.000  0.006  0.000  0.000  0.043
tot  0.022  0.000  0.105  0.000  0.000  0.000  0.017  0.000  0.000  0.144
 

 k-point    2 :    0.11111111 0.00000000 0.00000000     weight = 0.04938272

band   1 # energy   -8.21567200 # occ.  2.00000000
 
ion      s     py     pz     px    dxy    dyz    dz2    dxz    dx2    tot
  1  0.039  0.001  0.006  0.001  0.000  0.000  0.000  0.000  0.000  0.047
  2  0.158  0.002  0.003  0.002  0.000  0.000  0.000  0.000  0.000  0.167
  3  0.242  0.004  0.000  0.004  0.000  0.000  0.000  0.000  0.000  0.249
  4  0.191  0.003  0.002  0.003  0.000  0.000  0.000  0.000  0.000  0.199
  5  0.056  0.001  0.008  0.001  0.000  0.000  0.000  0.000  0.000  0.067
tot  0.685  0.010  0.020  0.010  0.001  0.001  0.000  0.001  0.000  0.729
 
band   2 # energy   -7.05685803 # occ.  2.00000000
 
ion      s     py     pz     px    dxy    dyz    dz2    dxz    dx2    tot
  1  0.129  0.002  0.012  0.002  0.000  0.001  0.001  0.001  0.000  0.146
  2  0.187  0.003  0.005  0.003  0.000  0.000  0.005  0.000  0.000  0.203
  3  0.001  0.000  0.036  0.000  0.000  0.002  0.000  0.002  0.000  0.042
  4  0.164  0.003  0.008  0.003  0.000  0.000  0.005  0.000  0.000  0.183
  5  0.132  0.002  0.011  0.002  0.000  0.001  0.001  0.001  0.000  0.150
tot  0.613  0.009  0.072  0.009  0.001  0.004  0.012  0.004  0.000  0.724
 
band   3 # energy   -5.42514825 # occ.  2.00000000
 
ion      s     py     pz     px    dxy    dyz    dz2    dxz    dx2    tot
  1  0.150  0.002  0.002  0.002  0.001  0.000  0.018  0.000  0.000  0.175
  2  0.004  0.000  0.059  0.000  0.000  0.005  0.003  0.005  0.000  0.076
  3  0.155  0.003  0.000  0.003  0.002  0.000  0.062  0.000  0.000  0.225
  4  0.003  0.000  0.059  0.000  0.000  0.005  0.003  0.005  0.000  0.075
  5  0.139  0.002  0.001  0.002  0.001  0.000  0.020  0.000  0.000  0.166
tot  0.450  0.007  0.120  0.007  0.003  0.010  0.107  0.010  0.000  0.717
 
band   4 # energy   -4.33860227 # occ.  2.00000000
 
ion      s     py     pz     px    dxy    dyz    dz2    dxz    dx2    tot
  1  0.012  0.000  0.000  0.000  0.000  0.000  0.007  0.000  0.000  0.020
  2  0.004  0.000  0.008  0.000  0.000  0.001  0.000  0.001  0.000  0.013
  3  0.004  0.000  0.017  0.000  0.001  0.001  0.086  0.001  0.000  0.112
  4  0.040  0.001  0.009  0.001  0.008  0.002  0.326  0.002  0.000  0.389
  5  0.077  0.002  0.009  0.002  0.006  0.001  0.189  0.001  0.000  0.287
tot  0.136  0.004  0.043  0.004  0.016  0.004  0.609  0.004  0.000  0.821
 
band   5 # energy   -4.26548267 # occ.  2.00000000
 
ion      s     py     pz     px    dxy    dyz    dz2    dxz    dx2    tot
  1  0.077  0.002  0.008  0.002  0.004  0.001  0.169  0.001  0.000  0.262
  2  0.042  0.002  0.005  0.002  0.007  0.001  0.325  0.001  0.000  0.385
  3  0.005  0.000  0.013  0.000  0.002  0.001  0.133  0.001  0.000  0.156
  4  0.001  0.000  0.005  0.000  0.000  0.000  0.012  0.000  0.000  0.018
  5  0.003  0.000  0.000  0.000  0.000  0.000  0.000  0.000  0.000  0.003
tot  0.128  0.004  0.032  0.004  0.013  0.003  0.639  0.003  0.000  0.826
 
band   6 # energy   -3.90532163 # occ.  2.00000000
 
ion      s     py     pz     px    dxy    dyz    dz2    dxz    dx2    tot
  1  0.000  0.000  0.000  0.000  0.029  0.000  0.000  0.000  0.000  0.030
  2  0.000  0.001  0.000  0.001  0.166  0.000  0.002  0.000  0.000  0.170
  3  0.000  0.002  0.000  0.002  0.315  0.000  0.004  0.000  0.000  0.322
  4  0.000  0.002  0.000  0.002  0.315  0.000  0.004  0.000  0.000  0.323
  5  0.000  0.001  0.000  0.001  0.091  0.001  0.001  0.001  0.000  0.095
tot  0.000  0.006  0.000  0.006  0.915  0.002  0.011  0.002  0.000  0.940
 
band   7 # energy   -3.56103050 # occ.  2.00000000
 
ion      s     py     pz     px    dxy    dyz    dz2    dxz    dx2    tot
  1  0.000  0.001  0.000  0.001  0.149  0.001  0.003  0.001  0.000  0.156
  2  0.000  0.002  0.000  0.002  0.342  0.000  0.005  0.000  0.000  0.352
  3  0.000  0.000  0.000  0.000  0.023  0.003  0.000  0.003  0.000  0.029
  4  0.000  0.001  0.000  0.001  0.218  0.001  0.004  0.001  0.000  0.227
  5  0.000  0.001  0.000  0.001  0.171  0.001  0.003  0.001  0.000  0.180
tot  0.001  0.005  0.001  0.005  0.904  0.006  0.015  0.006  0.000  0.944
 
band   8 # energy   -3.08108745 # occ.  2.00000000
 
ion      s     py     pz     px    dxy    dyz    dz2    dxz    dx2    tot
  1  0.000  0.001  0.000  0.001  0.298  0.001  0.001  0.001  0.000  0.306
  2  0.000  0.000  0.000  0.000  0.029  0.009  0.000  0.009  0.000  0.047
  3  0.000  0.002  0.000  0.002  0.351  0.000  0.001  0.000  0.000  0.356
  4  0.000  0.000  0.000  0.000  0.003  0.011  0.000  0.011  0.000  0.025
  5  0.000  0.001  0.000  0.001  0.212  0.001  0.001  0.001  0.000  0.218
tot  0.001  0.004  0.001  0.004  0.893  0.022  0.004  0.022  0.000  0.952
 
band   9 # energy   -2.64851583 # occ.  2.00000000
 
ion      s     py     pz     px    dxy    dyz    dz2    dxz    dx2    tot
  1  0.000  0.001  0.000  0.001  0.261  0.001  0.000  0.001  0.000  0.265
  2  0.000  0.001  0.000  0.001  0.144  0.024  0.000  0.024  0.000  0.192
  3  0.000  0.000  0.000  0.000  0.000  0.046  0.000  0.046  0.000  0.092
  4  0.000  0.001  0.000  0.001  0.129  0.032  0.000  0.032  0.000  0.194
  5  0.000  0.001  0.000  0.001  0.214  0.001  0.000  0.001  0.000  0.219
tot  0.001  0.003  0.001  0.003  0.748  0.103  0.000  0.103  0.000  0.962
 
band  10 # energy   -2.35155420 # occ.  2.00000000
 
ion      s     py     pz     px    dxy    dyz    dz2    dxz    dx2    tot
  1  0.000  0.000  0.000  0.000  0.141  0.004  0.003  0.004  0.000  0.153
  2  0.000  0.000  0.000  0.000  0.194  0.004  0.001  0.004  0.000  0.204
  3  0.000  0.000  0.000  0.000  0.198  0.000  0.000  0.000  0.000  0.199
  4  0.000  0.000  0.000  0.000  0.212  0.003  0.000  0.003  0.000  0.219
  5  0.000  0.000  0.000  0.000  0.180  0.006  0.003  0.006  0.000  0.196
tot  0.000  0.001  0.000  0.001  0.925  0.018  0.007  0.018  0.000  0.971
 
band  11 # energy   -2.30670129 # occ.  2.00000000
 
ion      s     py     pz     px    dxy    dyz    dz2    dxz    dx2    tot
  1  0.000  0.000  0.000  0.000  0.060  0.018  0.005  0.018  0.000  0.101
  2  0.000  0.000  0.000  0.000  0.038  0.074  0.001  0.074  0.000  0.188
  3  0.000  0.000  0.001  0.000  0.002  0.106  0.002  0.106  0.000  0.216
  4  0.000  0.000  0.000  0.000  0.022  0.136  0.000  0.136  0.000  0.295
  5  0.000  0.000  0.000  0.000  0.072  0.042  0.015  0.042  0.000  0.172
tot  0.001  0.000  0.001  0.000  0.195  0.376  0.024  0.376  0.000  0.972
 
band  12 # energy   -2.24350440 # occ.  2.00000000
 
ion      s     py     pz     px    dxy    dyz    dz2    dxz    dx2    tot
  1  0.000  0.000  0.000  0.000  0.000  0.011  0.000  0.011  0.003  0.025
  2  0.000  0.000  0.000  0.000  0.000  0.092  0.000  0.092  0.004  0.189
  3  0.000  0.000  0.000  0.000  0.000  0.174  0.000  0.174  0.000  0.349
  4  0.000  0.000  0.000  0.000  0.000  0.171  0.000  0.171  0.002  0.344
  5  0.000  0.001  0.000  0.001  0.000  0.031  0.000  0.031  0.007  0.071
tot  0.000  0.001  0.000  0.001  0.000  0.479  0.000  0.479  0.017  0.978
 
band  13 # energy   -2.12631906 # occ.  2.00000000
 
ion      s     py     pz     px    dxy    dyz    dz2    dxz    dx2    tot
  1  0.001  0.000  0.000  0.000  0.003  0.028  0.085  0.028  0.000  0.147
  2  0.000  0.000  0.000  0.000  0.006  0.128  0.001  0.128  0.000  0.263
  3  0.002  0.001  0.000  0.001  0.044  0.010  0.156  0.010  0.000  0.223
  4  0.000  0.000  0.001  0.000  0.018  0.081  0.017  0.081  0.000  0.200
  5  0.003  0.000  0.000  0.000  0.000  0.030  0.063  0.030  0.000  0.127
tot  0.006  0.001  0.002  0.001  0.072  0.277  0.323  0.277  0.000  0.960
 
band  14 # energy   -1.93720978 # occ.  2.00000000
 
ion      s     py     pz     px    dxy    dyz    dz2    dxz    dx2    tot
  1  0.000  0.001  0.000  0.001  0.000  0.056  0.000  0.056  0.007  0.120
  2  0.000  0.000  0.000  0.000  0.000  0.187  0.000  0.187  0.003  0.378
  3  0.000  0.001  0.000  0.001  0.000  0.009  0.000  0.009  0.044  0.064
  4  0.000  0.000  0.000  0.000  0.000  0.130  0.000  0.130  0.016  0.276
  5  0.000  0.001  0.000  0.001  0.000  0.067  0.000  0.067  0.005  0.139
tot  0.000  0.003  0.000  0.003  0.000  0.449  0.000  0.449  0.074  0.978
 
band  15 # energy   -1.85534838 # occ.  2.00000000
 
ion      s     py     pz     px    dxy    dyz    dz2    dxz    dx2    tot
  1  0.014  0.000  0.002  0.000  0.000  0.055  0.011  0.055  0.000  0.137
  2  0.010  0.001  0.009  0.001  0.013  0.022  0.123  0.022  0.000  0.201
  3  0.000  0.000  0.024  0.000  0.000  0.153  0.003  0.153  0.000  0.333
  4  0.011  0.001  0.007  0.001  0.011  0.006  0.103  0.006  0.000  0.144
  5  0.011  0.000  0.002  0.000  0.000  0.039  0.000  0.039  0.000  0.091
tot  0.047  0.001  0.044  0.001  0.024  0.275  0.240  0.275  0.000  0.907
 
band  16 # energy   -1.52770873 # occ.  2.00000000
 
ion      s     py     pz     px    dxy    dyz    dz2    dxz    dx2    tot
  1  0.006  0.000  0.001  0.000  0.001  0.099  0.190  0.099  0.000  0.396
  2  0.001  0.000  0.013  0.000  0.003  0.017  0.002  0.017  0.000  0.054
  3  0.014  0.000  0.000  0.000  0.006  0.002  0.202  0.002  0.000  0.226
  4  0.000  0.000  0.011  0.000  0.007  0.012  0.014  0.012  0.000  0.055
  5  0.005  0.000  0.000  0.000  0.000  0.085  0.047  0.085  0.000  0.223
tot  0.026  0.001  0.025  0.001  0.016  0.216  0.454  0.216  0.000  0.955
 
band  17 # energy   -1.48508501 # occ.  2.00000000
 
ion      s     py     pz     px    dxy    dyz    dz2    dxz    dx2    tot
  1  0.000  0.000  0.000  0.000  0.000  0.097  0.000  0.097  0.000  0.194
  2  0.000  0.001  0.000  0.001  0.000  0.028  0.000  0.028  0.100  0.158
  3  0.000  0.000  0.000  0.000  0.000  0.102  0.000  0.102  0.000  0.204
  4  0.000  0.001  0.000  0.001  0.000  0.003  0.000  0.003  0.215  0.224
  5  0.000  0.000  0.000  0.000  0.000  0.093  0.000  0.093  0.013  0.200
tot  0.000  0.003  0.000  0.003  0.000  0.323  0.000  0.323  0.328  0.980
 
band  18 # energy   -1.40180203 # occ.  2.00000000
 
ion      s     py     pz     px    dxy    dyz    dz2    dxz    dx2    tot
  1  0.002  0.000  0.000  0.000  0.001  0.001  0.278  0.001  0.000  0.283
  2  0.000  0.000  0.000  0.000  0.003  0.001  0.201  0.001  0.000  0.207
  3  0.001  0.000  0.000  0.000  0.001  0.018  0.038  0.018  0.000  0.076
  4  0.000  0.000  0.003  0.000  0.000  0.001  0.061  0.001  0.000  0.067
  5  0.008  0.000  0.001  0.000  0.001  0.004  0.288  0.004  0.000  0.306
tot  0.011  0.000  0.005  0.000  0.006  0.026  0.865  0.026  0.000  0.938
 
band  19 # energy   -1.29232988 # occ.  2.00000000
 
ion      s     py     pz     px    dxy    dyz    dz2    dxz    dx2    tot
  1  0.000  0.000  0.000  0.000  0.000  0.013  0.000  0.013  0.046  0.071
  2  0.000  0.000  0.000  0.000  0.000  0.007  0.000  0.007  0.279  0.294
  3  0.000  0.000  0.000  0.000  0.000  0.010  0.000  0.010  0.139  0.161
  4  0.000  0.000  0.000  0.000  0.000  0.017  0.000  0.017  0.303  0.338
  5  0.000  0.000  0.000  0.000  0.000  0.000  0.000  0.000  0.123  0.123