<?xml version="1.0" encoding="ISO-8859-1"?>
<modeling>
 <generator>
  <i name="program" type="string">vasp</i>
  <i name="version" type="string">4.6.38 </i>
  <i name="subversion" type="string">12Jan11 complex  serial</i>
  <i name="platform" type="string">Sun</i>
  <i name="date" type="string">2020 02 18</i>
  <i name="time" type="string">16:34:56</i>
 </generator>
 <incar>
  <i type="string" name="SYSTEM"> clean (100) Ni surface</i>
  <i type="string" name="PREC">medium</i>
  <i type="string" name="ALGO"> Normal</i>
  <i type="int" name="ISPIN">     2</i>
  <i name="ENMAX">    270.00000000</i>
  <v name="MAGMOM">      1.00000000      1.00000000      1.00000000      1.00000000      1.00000000</v>
  <i type="int" name="ISMEAR">    -5</i>
  <i type="logical" name="LORBIT"> F</i>
 </incar>
 <kpoints>
  <generation param="Monkhorst-Pack">
   <v type="int" name="divisions">       9       9       1</v>
   <v name="usershift">      0.00000000       0.00000000       0.00000000 </v>
   <v name="genvec1">      0.11111111       0.00000000       0.00000000 </v>
   <v name="genvec2">      0.00000000       0.11111111       0.00000000 </v>
   <v name="genvec3">      0.00000000       0.00000000       1.00000000 </v>
   <v name="shift">      0.00000000       0.00000000       0.00000000 </v>
  </generation>
  <varray name="kpointlist" >
   <v>       0.00000000       0.00000000       0.00000000 </v>
   <v>       0.11111111       0.00000000       0.00000000 </v>
   <v>       0.22222222       0.00000000       0.00000000 </v>
   <v>       0.33333333       0.00000000       0.00000000 </v>
   <v>       0.44444444       0.00000000       0.00000000 </v>
   <v>       0.11111111       0.11111111       0.00000000 </v>
   <v>       0.22222222       0.11111111       0.00000000 </v>
   <v>       0.33333333       0.11111111       0.00000000 </v>
   <v>       0.44444444       0.11111111       0.00000000 </v>
   <v>       0.22222222       0.22222222       0.00000000 </v>
   <v>       0.33333333       0.22222222       0.00000000 </v>
   <v>       0.44444444       0.22222222       0.00000000 </v>
   <v>       0.33333333       0.33333333       0.00000000 </v>
   <v>       0.44444444       0.33333333       0.00000000 </v>
   <v>       0.44444444       0.44444444       0.00000000 </v>
  </varray>
  <varray name="weights" >
   <v>       0.01234568 </v>
   <v>       0.04938272 </v>
   <v>       0.04938272 </v>
   <v>       0.04938272 </v>
   <v>       0.04938272 </v>
   <v>       0.04938272 </v>
   <v>       0.09876543 </v>
   <v>       0.09876543 </v>
   <v>       0.09876543 </v>
   <v>       0.04938272 </v>
   <v>       0.09876543 </v>
   <v>       0.09876543 </v>
   <v>       0.04938272 </v>
   <v>       0.09876543 </v>
   <v>       0.04938272 </v>
  </varray>
  <varray name="tetrahedronlist"  type="int" >
   <v type="int" >        4       2       2       2       6</v>
   <v type="int" >        4       1       2       2       2</v>
   <v type="int" >        2       1       1       2       2</v>
   <v type="int" >        2       2       2       6       6</v>
   <v type="int" >        4       3       6       6       7</v>
   <v type="int" >        4       2       3       6       6</v>
   <v type="int" >        4       2       2       3       6</v>
   <v type="int" >        4       3       6       7       7</v>
   <v type="int" >        4       3       3       6       7</v>
   <v type="int" >        4       2       3       3       6</v>
   <v type="int" >        4       4       7       7       8</v>
   <v type="int" >        4       3       4       7       7</v>
   <v type="int" >        4       3       3       4       7</v>
   <v type="int" >        4       4       7       8       8</v>
   <v type="int" >        4       4       4       7       8</v>
   <v type="int" >        4       3       4       4       7</v>
   <v type="int" >        4       5       8       8       9</v>
   <v type="int" >        4       4       5       8       8</v>
   <v type="int" >        4       4       4       5       8</v>
   <v type="int" >        4       5       8       9       9</v>
   <v type="int" >        4       5       5       8       9</v>
   <v type="int" >        4       4       5       5       8</v>
   <v type="int" >        8       5       9       9       9</v>
   <v type="int" >        8       5       5       9       9</v>
   <v type="int" >        8       5       5       5       9</v>
   <v type="int" >        4       4       8       9       9</v>
   <v type="int" >        4       4       5       9       9</v>
   <v type="int" >        4       4       5       5       9</v>
   <v type="int" >        4       4       8       8       9</v>
   <v type="int" >        4       4       4       8       9</v>
   <v type="int" >        4       4       4       5       9</v>
   <v type="int" >        4       3       7       8       8</v>
   <v type="int" >        4       3       4       8       8</v>
   <v type="int" >        4       3       4       4       8</v>
   <v type="int" >        4       3       7       7       8</v>
   <v type="int" >        4       3       3       7       8</v>
   <v type="int" >        4       3       3       4       8</v>
   <v type="int" >        4       2       6       7       7</v>
   <v type="int" >        4       2       3       7       7</v>
   <v type="int" >        4       2       3       3       7</v>
   <v type="int" >        4       2       6       6       7</v>
   <v type="int" >        4       2       2       6       7</v>
   <v type="int" >        4       2       2       3       7</v>
   <v type="int" >        4       1       2       6       6</v>
   <v type="int" >        4       1       2       2       6</v>
   <v type="int" >        4       1       1       2       6</v>
   <v type="int" >        4       7       7       7      10</v>
   <v type="int" >        4       6       7       7       7</v>
   <v type="int" >        2       6       6       7       7</v>
   <v type="int" >        2       7       7      10      10</v>
   <v type="int" >        4       8      10      10      11</v>
   <v type="int" >        4       7       8      10      10</v>
   <v type="int" >        4       7       7       8      10</v>
   <v type="int" >        4       8      10      11      11</v>
   <v type="int" >        4       8       8      10      11</v>
   <v type="int" >        4       7       8       8      10</v>
   <v type="int" >        4       9      11      11      12</v>
   <v type="int" >        4       8       9      11      11</v>
   <v type="int" >        4       8       8       9      11</v>
   <v type="int" >        4       9      11      12      12</v>
   <v type="int" >        4       9       9      11      12</v>
   <v type="int" >        4       8       9       9      11</v>
   <v type="int" >        8       9      12      12      12</v>
   <v type="int" >        8       9       9      12      12</v>
   <v type="int" >        8       9       9       9      12</v>
   <v type="int" >        4       8      11      12      12</v>
   <v type="int" >        4       8       9      12      12</v>
   <v type="int" >        4       8       9       9      12</v>
   <v type="int" >        4       8      11      11      12</v>
   <v type="int" >        4       8       8      11      12</v>
   <v type="int" >        4       8       8       9      12</v>
   <v type="int" >        4       7      10      11      11</v>
   <v type="int" >        4       7       8      11      11</v>
   <v type="int" >        4       7       8       8      11</v>
   <v type="int" >        4       7      10      10      11</v>
   <v type="int" >        4       7       7      10      11</v>
   <v type="int" >        4       7       7       8      11</v>
   <v type="int" >        4       6       7      10      10</v>
   <v type="int" >        4       6       7       7      10</v>
   <v type="int" >        4       6       6       7      10</v>
   <v type="int" >        4      11      11      11      13</v>
   <v type="int" >        4      10      11      11      11</v>
   <v type="int" >        2      10      10      11      11</v>
   <v type="int" >        2      11      11      13      13</v>
   <v type="int" >        4      12      13      13      14</v>
   <v type="int" >        4      11      12      13      13</v>
   <v type="int" >        4      11      11      12      13</v>
   <v type="int" >        4      12      13      14      14</v>
   <v type="int" >        4      12      12      13      14</v>
   <v type="int" >        4      11      12      12      13</v>
   <v type="int" >        8      12      14      14      14</v>
   <v type="int" >        8      12      12      14      14</v>
   <v type="int" >        8      12      12      12      14</v>
   <v type="int" >        4      11      13      14      14</v>
   <v type="int" >        4      11      12      14      14</v>
   <v type="int" >        4      11      12      12      14</v>
   <v type="int" >        4      11      13      13      14</v>
   <v type="int" >        4      11      11      13      14</v>
   <v type="int" >        4      11      11      12      14</v>
   <v type="int" >        4      10      11      13      13</v>
   <v type="int" >        4      10      11      11      13</v>
   <v type="int" >        4      10      10      11      13</v>
   <v type="int" >       12      14      14      14      15</v>
   <v type="int" >        4      13      14      14      14</v>
   <v type="int" >        2      13      13      14      14</v>
   <v type="int" >       10      14      14      15      15</v>
   <v type="int" >        8      14      15      15      15</v>
   <v type="int" >        4      13      14      15      15</v>
   <v type="int" >        4      13      14      14      15</v>
   <v type="int" >        4      13      13      14      15</v>
   <v type="int" >        6      15      15      15      15</v>
  </varray>
  <i name="volumeweight">      0.00205761</i>
 </kpoints>
 <parameters>
  <separator name="general" >
   <i type="string" name="SYSTEM">clean (100) Ni surface</i>
   <i type="logical" name="LCOMPAT"> F</i>
  </separator>
  <separator name="electronic" >
   <i type="string" name="PREC">medium</i>
   <i name="ENMAX">    270.00000000</i>
   <i name="ENAUG">    544.56500000</i>
   <i name="EDIFF">      0.00010000</i>
   <i type="int" name="IALGO">    38</i>
   <i type="int" name="IWAVPR">     0</i>
   <i type="int" name="NBANDS">    33</i>
   <i name="NELECT">     50.00000000</i>
   <separator name="electronic smearing" >
    <i type="int" name="ISMEAR">    -5</i>
    <i name="SIGMA">      0.20000000</i>
   </separator>
   <separator name="electronic projectors" >
    <i type="logical" name="LREAL"> F</i>
    <v name="ROPT">      0.00000000</v>
    <i type="int" name="LMAXPAW">  -100</i>
    <i type="int" name="LMAXMIX">     2</i>
   </separator>
   <separator name="electronic startup" >
    <i type="int" name="ISTART">     1</i>
    <i type="int" name="ICHARG">     0</i>
    <i type="int" name="INIWAV">     1</i>
   </separator>
   <separator name="electronic spin" >
    <i type="int" name="ISPIN">     2</i>
    <i type="logical" name="LNONCOLLINEAR"> F</i>
    <v name="MAGMOM">      1.00000000      1.00000000      1.00000000      1.00000000      1.00000000</v>
    <i name="NUPDOWN">     -1.00000000</i>
    <i type="logical" name="LSORBIT"> F</i>
    <v name="SAXIS">      0.00000000      0.00000000      1.00000000</v>
    <i type="logical" name="LSPIRAL"> F</i>
    <v name="QSPIRAL">      0.00000000      0.00000000      0.00000000</v>
    <i type="logical" name="LZEROZ"> F</i>
   </separator>
   <separator name="electronic exchange-correlation" >
    <i type="string" name="GGA">--</i>
    <i type="int" name="VOSKOWN">     0</i>
    <i type="logical" name="LASPH"> F</i>
    <i type="logical" name="LMETAGGA"> F</i>
    <i type="string" name="GGA2">--</i>
   </separator>
   <separator name="electronic convergence" >
    <i type="int" name="NELM">    60</i>
    <i type="int" name="NELMDL">     0</i>
    <i type="int" name="NELMIN">     2</i>
    <i name="ENINI">    270.00000000</i>
    <separator name="electronic convergence detail" >
     <i type="logical" name="LDIAG"> T</i>
     <i name="WEIMIN">      0.00000000</i>
     <i name="EBREAK">      0.00000076</i>
     <i name="DEPER">      0.30000000</i>
     <i type="int" name="NRMM">     4</i>
     <i name="TIME">      0.10000000</i>
    </separator>
   </separator>
   <separator name="electronic mixer" >
    <i name="AMIX">      0.40000000</i>
    <i name="BMIX">      1.00000000</i>
    <i name="AMIN">      0.10000000</i>
    <i name="AMIX_MAG">      1.60000000</i>
    <i name="BMIX_MAG">      1.00000000</i>
    <separator name="electronic mixer details" >
     <i type="int" name="IMIX">     4</i>
     <i type="int" name="MAXMIX">   -45</i>
     <i name="WC">    100.00000000</i>
     <i type="int" name="INIMIX">     1</i>
     <i type="int" name="MIXPRE">     1</i>
     <i type="int" name="MREMOVE">     5</i>
    </separator>
   </separator>
   <separator name="electronic dipolcorrection" >
    <i type="int" name="IDIPOL">     0</i>
    <i type="logical" name="LDIPOL"> F</i>
    <v name="DIPOL">   -100.00000000</v>
    <i name="EFIELD">      0.00000000</i>
   </separator>
  </separator>
  <separator name="grids" >
   <i type="int" name="NGX">    10</i>
   <i type="int" name="NGY">    10</i>
   <i type="int" name="NGZ">    72</i>
   <i type="int" name="NGXF">    18</i>
   <i type="int" name="NGYF">    18</i>
   <i type="int" name="NGZF">   140</i>
   <i type="logical" name="ADDGRID"> F</i>
  </separator>
  <separator name="ionic" >
   <i type="int" name="NSW">     0</i>
   <i type="int" name="IBRION">    -1</i>
   <i type="int" name="ISIF">     2</i>
   <i name="PSTRESS">      0.00000000</i>
   <i name="EDIFFG">      0.00100000</i>
   <i type="int" name="NFREE">     0</i>
   <i name="POTIM">      0.50000000</i>
   <i name="SMASS">     -3.00000000</i>
  </separator>
  <separator name="ionic md" >
   <i name="TEBEG">      0.00010000</i>
   <i name="TEEND">      0.00010000</i>
   <i type="int" name="NBLOCK">     1</i>
   <i type="int" name="KBLOCK">     1</i>
   <i type="int" name="NPACO">   256</i>
   <i name="APACO">     16.00000000</i>
  </separator>
  <separator name="symmetry" >
   <i type="int" name="ISYM">     2</i>
   <i name="SYMPREC">      0.00001000</i>
  </separator>
  <separator name="dos" >
   <i type="logical" name="LORBIT"> F</i>
   <v name="RWIGS">     -1.00000000</v>
   <i type="int" name="NEDOS">   301</i>
   <i name="EMIN">     10.00000000</i>
   <i name="EMAX">    -10.00000000</i>
  </separator>
  <separator name="writing" >
   <i type="int" name="NWRITE">     2</i>
   <i type="logical" name="LWAVE"> T</i>
   <i type="logical" name="LCHARG"> T</i>
   <i type="logical" name="LPARD"> F</i>
   <i type="logical" name="LVTOT"> F</i>
   <i type="logical" name="LELF"> F</i>
   <i type="logical" name="LOPTICS"> F</i>
   <v name="STM">      0.00000000      0.00000000      0.00000000      0.00000000      0.00000000</v>
  </separator>
  <separator name="performance" >
   <i type="int" name="NPAR">     1</i>
   <i type="int" name="NSIM">     4</i>
   <i type="int" name="NBLK">    96</i>
   <i type="logical" name="LPLANE"> T</i>
   <i type="logical" name="LCRITICAL_MEM"> F</i>
   <i type="logical" name="LSCALAPACK"> F</i>
   <i type="logical" name="LSCALU"> F</i>
   <i type="logical" name="LASYNC"> F</i>
  </separator>
  <separator name="miscellaneous" >
   <i type="int" name="IDIOT">     3</i>
   <i type="logical" name="LMUSIC"> F</i>
   <v name="POMASS">     58.69000000</v>
   <i type="logical" name="LCORR"> T</i>
  </separator>
  <i type="logical" name="LREAL_COMPAT"> F</i>
  <i type="logical" name="GGA_COMPAT"> T</i>
  <i type="logical" name="LBERRY"> F</i>
  <i type="int" name="ICORELEVEL">     0</i>
  <i type="logical" name="LDAU"> F</i>
  <i type="int" name="I_CONSTRAINED_M">     0</i>
 </parameters>
 <atominfo>
  <atoms>       5</atoms>
  <types>       1</types>
  <array name="atoms" >
   <dimension dim="1">ion</dimension>
   <field type="string">element</field>
   <field type="int">atomtype</field>
   <set>
    <rc><c>Ni</c><c>   1</c></rc>
    <rc><c>Ni</c><c>   1</c></rc>
    <rc><c>Ni</c><c>   1</c></rc>
    <rc><c>Ni</c><c>   1</c></rc>
    <rc><c>Ni</c><c>   1</c></rc>
   </set>
  </array>
  <array name="atomtypes" >
   <dimension dim="1">type</dimension>
   <field type="int">atomspertype</field>
   <field type="string">element</field>
   <field>mass</field>
   <field>valence</field>
   <field type="string">pseudopotential</field>
   <set>
    <rc><c>   5</c><c>Ni</c><c>     58.69000000</c><c>     10.00000000</c><c>  PAW Ni                                </c></rc>
   </set>
  </array>
 </atominfo>
 <structure name="initialpos" >
  <crystal>
   <varray name="basis" >
    <v>       1.76500000       1.76500000       0.00000000 </v>
    <v>      -1.76500000       1.76500000       0.00000000 </v>
    <v>       0.00000000       0.00000000      17.65000000 </v>
   </varray>
   <i name="volume">    109.96744250</i>
   <varray name="rec_basis" >
    <v>       0.28328612       0.28328612       0.00000000 </v>
    <v>      -0.28328612       0.28328612       0.00000000 </v>
    <v>       0.00000000       0.00000000       0.05665722 </v>
   </varray>
  </crystal>
  <varray name="positions" >
   <v>       0.00000000       0.00000000       0.00000000 </v>
   <v>       0.50000000       0.50000000       0.10000000 </v>
   <v>       0.00000000       0.00000000       0.20000000 </v>
   <v>       0.50000000       0.50000000       0.30039442 </v>
   <v>       0.00000000       0.00000000       0.39589016 </v>
  </varray>
  <varray name="selective"  type="logical" >
   <v type="logical" >  F F F</v>
   <v type="logical" >  F F F</v>
   <v type="logical" >  F F F</v>
   <v type="logical" >  T T T</v>
   <v type="logical" >  T T T</v>
  </varray>
  <nose>
   <v>      -3.00000000       0.00000000       0.00010000       0.00010000 </v>
  </nose>
 </structure>
 <calculation>
  <scstep>
   <time name="dav">  184.52   88.23</time>
   <time name="total">  204.31  108.02</time>
   <energy>
    <i name="alphaZ">    228.18410549</i>
    <i name="ewald">   9428.86269635</i>
    <i name="hartreedc"> -14782.06206576</i>
    <i name="XCdc">    151.69796818</i>
    <i name="pawpsdc">   4544.33244566</i>
    <i name="pawaedc">  -4887.03181812</i>
    <i name="eentropy">      0.00000000</i>
    <i name="bandstr">   -106.71169906</i>
    <i name="atom">   5397.15695484</i>
    <i name="e_fr_energy">    -25.57141242</i>
    <i name="e_wo_entrp">    -25.57141242</i>
    <i name="e_0_energy">    -25.57141242</i>
   </energy>
  </scstep>
  <scstep>
   <time name="dav">  266.60  124.85</time>
   <time name="total">  286.41  144.64</time>
   <energy>
    <i name="e_fr_energy">    -25.59241531</i>
    <i name="e_wo_entrp">    -25.59241531</i>
    <i name="e_0_energy">    -25.59241531</i>
   </energy>
  </scstep>
  <scstep>
   <time name="dav">  254.62  119.61</time>
   <time name="total">  274.51  139.49</time>
   <energy>
    <i name="e_fr_energy">    -25.57123601</i>
    <i name="e_wo_entrp">    -25.57123601</i>
    <i name="e_0_energy">    -25.57123601</i>
   </energy>
  </scstep>
  <scstep>
   <time name="dav">  267.63  125.49</time>
   <time name="total">  287.41  145.27</time>
   <energy>
    <i name="e_fr_energy">    -25.57153734</i>
    <i name="e_wo_entrp">    -25.57153734</i>
    <i name="e_0_energy">    -25.57153734</i>
   </energy>
  </scstep>
  <scstep>
   <time name="dav">  272.11  127.50</time>
   <time name="total">  292.02  147.40</time>
   <energy>
    <i name="e_fr_energy">    -25.57088181</i>
    <i name="e_wo_entrp">    -25.57088181</i>
    <i name="e_0_energy">    -25.57088181</i>
   </energy>
  </scstep>
  <scstep>
   <time name="dav">  233.95  110.49</time>
   <time name="total">  253.75  130.27</time>
   <energy>
    <i name="e_fr_energy">    -25.57075938</i>
    <i name="e_wo_entrp">    -25.57075938</i>
    <i name="e_0_energy">    -25.57075938</i>
   </energy>
  </scstep>
  <scstep>
   <time name="dav">  169.02   81.38</time>
   <time name="total">  179.58   91.92</time>
   <energy>
    <i name="alphaZ">    228.18410549</i>
    <i name="ewald">   9428.86269635</i>
    <i name="hartreedc"> -14782.17067544</i>
    <i name="XCdc">    151.69537115</i>
    <i name="pawpsdc">   4544.68850668</i>
    <i name="pawaedc">  -4887.36712403</i>
    <i name="eentropy">      0.00000000</i>
    <i name="bandstr">   -106.62054181</i>
    <i name="atom">   5397.15695484</i>
    <i name="e_fr_energy">    -25.57070678</i>
    <i name="e_wo_entrp">    -25.57070678</i>
    <i name="e_0_energy">    -25.57070678</i>
   </energy>
  </scstep>
  <structure>
   <crystal>
    <varray name="basis" >
     <v>       1.76500000       1.76500000       0.00000000 </v>
     <v>      -1.76500000       1.76500000       0.00000000 </v>
     <v>       0.00000000       0.00000000      17.65000000 </v>
    </varray>
    <i name="volume">    109.96744250</i>
    <varray name="rec_basis" >
     <v>       0.28328612       0.28328612       0.00000000 </v>
     <v>      -0.28328612       0.28328612       0.00000000 </v>
     <v>       0.00000000       0.00000000       0.05665722 </v>
    </varray>
   </crystal>
   <varray name="positions" >
    <v>       0.00000000       0.00000000       0.00000000 </v>
    <v>       0.50000000       0.50000000       0.10000000 </v>
    <v>       0.00000000       0.00000000       0.20000000 </v>
    <v>       0.50000000       0.50000000       0.30039442 </v>
    <v>       0.00000000       0.00000000       0.39589016 </v>
   </varray>
  </structure>
  <varray name="forces" >
   <v>       0.00000000       0.00000000       0.38963453 </v>
   <v>       0.00000000       0.00000000      -0.38777415 </v>
   <v>       0.00000000       0.00000000      -0.00325733 </v>
   <v>       0.00000000       0.00000000      -0.00026070 </v>
   <v>       0.00000000       0.00000000       0.00165764 </v>
  </varray>
  <varray name="stress" >
   <v>     -52.81797578       0.00000000       0.00000000 </v>
   <v>       0.00000000     -52.81797578       0.00000000 </v>
   <v>       0.00000000       0.00000000     -27.93900981 </v>
  </varray>
  <energy>
   <i name="e_fr_energy">    -25.57070678</i>
   <i name="e_wo_entrp">    -25.57070678</i>
   <i name="e_0_energy">      0.00000000</i>
  </energy>
  <eigenvalues>
   <array>
    <dimension dim="1">band</dimension>
    <dimension dim="2">kpoint</dimension>
    <dimension dim="3">spin</dimension>
    <field>eigene</field>
    <field>occ</field>
    <set>
     <set comment="spin 1">
      <set comment="kpoint 1">
       <r>  -8.5275  1.0000</r>
       <r>  -7.3489  1.0000</r>
       <r>  -5.6769  1.0000</r>
       <r>  -4.5333  1.0000</r>
       <r>  -4.4503  1.0000</r>
       <r>  -4.0050  1.0000</r>
       <r>  -3.6463  1.0000</r>
       <r>  -3.1335  1.0000</r>
       <r>  -2.6567  1.0000</r>
       <r>  -2.4205  1.0000</r>
       <r>  -2.2841  1.0000</r>
       <r>  -2.2841  1.0000</r>
       <r>  -1.9116  1.0000</r>
       <r>  -1.9116  1.0000</r>
       <r>  -1.7402  1.0000</r>
       <r>  -1.4654  1.0000</r>
       <r>  -1.3178  1.0000</r>
       <r>  -1.3178  1.0000</r>
       <r>  -1.2796  1.0000</r>
       <r>  -1.2346  1.0000</r>
       <r>  -1.1688  1.0000</r>
       <r>  -1.0746  1.0000</r>
       <r>  -0.8037  1.0000</r>
       <r>  -0.7914  1.0000</r>
       <r>  -0.7914  1.0000</r>
       <r>  -0.6304  1.0000</r>
       <r>  -0.5605  1.0000</r>
       <r>  -0.5177  1.0000</r>
       <r>  -0.5177  1.0298</r>
       <r>   0.5644  0.0000</r>
       <r>   1.9246  0.0000</r>
       <r>   4.8938  0.0000</r>
       <r>   5.9651  0.0000</r>
      </set>
      <set comment="kpoint 2">
       <r>  -8.2157  1.0000</r>
       <r>  -7.0569  1.0000</r>
       <r>  -5.4251  1.0000</r>
       <r>  -4.3386  1.0000</r>
       <r>  -4.2655  1.0000</r>
       <r>  -3.9053  1.0000</r>
       <r>  -3.5610  1.0000</r>
       <r>  -3.0811  1.0000</r>
       <r>  -2.6485  1.0000</r>
       <r>  -2.3516  1.0000</r>
       <r>  -2.3067  1.0000</r>
       <r>  -2.2435  1.0000</r>
       <r>  -2.1263  1.0000</r>
       <r>  -1.9372  1.0000</r>
       <r>  -1.8553  1.0000</r>
       <r>  -1.5277  1.0000</r>
       <r>  -1.4851  1.0000</r>
       <r>  -1.4018  1.0000</r>
       <r>  -1.2923  1.0000</r>
       <r>  -1.2613  1.0000</r>
       <r>  -1.1118  1.0000</r>
       <r>  -1.0329  1.0000</r>
       <r>  -1.0215  1.0000</r>
       <r>  -1.0019  1.0000</r>
       <r>  -0.7165  1.0000</r>
       <r>  -0.7103  1.0000</r>
       <r>  -0.5864  1.0000</r>
       <r>  -0.4989  1.0000</r>
       <r>  -0.4466  0.8959</r>
       <r>   1.1748  0.0000</r>
       <r>   2.6249  0.0000</r>
       <r>   5.1891  0.0000</r>
       <r>   6.3013  0.0000</r>
      </set>
      <set comment="kpoint 3">
       <r>  -7.3242  1.0000</r>
       <r>  -6.2586  1.0000</r>
       <r>  -4.8489  1.0000</r>
       <r>  -3.9687  1.0000</r>
       <r>  -3.8716  1.0000</r>
       <r>  -3.6156  1.0000</r>
       <r>  -3.2231  1.0000</r>
       <r>  -2.8248  1.0000</r>
       <r>  -2.6783  1.0000</r>
       <r>  -2.3037  1.0000</r>
       <r>  -2.2771  1.0000</r>
       <r>  -2.2291  1.0000</r>
       <r>  -2.1981  1.0000</r>
       <r>  -2.1579  1.0000</r>
       <r>  -2.0274  1.0000</r>
       <r>  -1.8014  1.0000</r>
       <r>  -1.7417  1.0000</r>
       <r>  -1.6749  1.0000</r>
       <r>  -1.5133  1.0000</r>
       <r>  -1.2004  1.0000</r>
       <r>  -1.1718  1.0000</r>
       <r>  -1.1388  1.0000</r>
       <r>  -1.1333  1.0000</r>
       <r>  -0.9259  1.0000</r>
       <r>  -0.8685  1.0000</r>
       <r>  -0.7141  1.0000</r>
       <r>  -0.5575  1.0000</r>
       <r>  -0.5400  1.0234</r>
       <r>   0.3858 -0.0154</r>
       <r>   2.3354  0.0000</r>
       <r>   4.0602  0.0000</r>
       <r>   6.0542  0.0000</r>
       <r>   7.3023  0.0000</r>
      </set>
      <set comment="kpoint 4">
       <r>  -6.0249  1.0000</r>
       <r>  -5.2797  1.0000</r>
       <r>  -4.4832  1.0000</r>
       <r>  -3.8819  1.0000</r>
       <r>  -3.5869  1.0000</r>
       <r>  -3.2026  1.0000</r>
       <r>  -2.7175  1.0000</r>
       <r>  -2.6897  1.0000</r>
       <r>  -2.3993  1.0000</r>
       <r>  -2.3568  1.0000</r>
       <r>  -2.2922  1.0000</r>
       <r>  -2.1765  1.0000</r>
       <r>  -2.1651  1.0000</r>
       <r>  -2.1057  1.0000</r>
       <r>  -2.0490  1.0000</r>
       <r>  -1.8808  1.0000</r>
       <r>  -1.8171  1.0000</r>
       <r>  -1.7750  1.0000</r>
       <r>  -1.7269  1.0000</r>
       <r>  -1.3667  1.0000</r>
       <r>  -1.2588  1.0000</r>
       <r>  -0.8920  1.0000</r>
       <r>  -0.8893  1.0000</r>
       <r>  -0.7286  1.0000</r>
       <r>  -0.7149  1.0000</r>
       <r>  -0.6355  1.0492</r>
       <r>  -0.5624  1.0248</r>
       <r>  -0.5151  0.9145</r>
       <r>   1.3497  0.0000</r>
       <r>   3.5136  0.0000</r>
       <r>   5.3567  0.0000</r>
       <r>   5.4790  0.0000</r>
       <r>   6.8904  0.0000</r>
      </set>
      <set comment="kpoint 5">
       <r>  -4.8248  1.0000</r>
       <r>  -4.7108  1.0000</r>
       <r>  -4.3982  1.0000</r>
       <r>  -3.9664  1.0000</r>
       <r>  -3.6178  1.0000</r>
       <r>  -2.7964  1.0000</r>
       <r>  -2.7469  1.0000</r>
       <r>  -2.4975  1.0000</r>
       <r>  -2.4395  1.0000</r>
       <r>  -2.3225  1.0000</r>
       <r>  -2.2805  1.0000</r>
       <r>  -2.2649  1.0000</r>
       <r>  -2.2166  1.0000</r>
       <r>  -2.1283  1.0000</r>
       <r>  -1.9465  1.0000</r>
       <r>  -1.9400  1.0000</r>
       <r>  -1.9162  1.0000</r>
       <r>  -1.5200  1.0000</r>
       <r>  -1.2800  1.0000</r>
       <r>  -1.1953  1.0000</r>
       <r>  -0.8984  1.0000</r>
       <r>  -0.7912  1.0000</r>
       <r>  -0.7829  1.0000</r>
       <r>  -0.6447  1.0000</r>
       <r>  -0.5973  1.0000</r>
       <r>  -0.0463  0.3481</r>
       <r>  -0.0044  0.2898</r>
       <r>   0.2669  0.0198</r>
       <r>   1.5359  0.0000</r>
       <r>   1.9799  0.0000</r>
       <r>   4.5223  0.0000</r>
       <r>   4.6959  0.0000</r>
       <r>   6.7973  0.0000</r>
      </set>
      <set comment="kpoint 6">
       <r>  -7.9084  1.0000</r>
       <r>  -6.7683  1.0000</r>
       <r>  -5.1744  1.0000</r>
       <r>  -4.1546  1.0000</r>
       <r>  -4.0723  1.0000</r>
       <r>  -3.8030  1.0000</r>
       <r>  -3.4882  1.0000</r>
       <r>  -3.0545  1.0000</r>
       <r>  -2.6972  1.0000</r>
       <r>  -2.2831  1.0000</r>
       <r>  -2.2763  1.0000</r>
       <r>  -2.2395  1.0000</r>
       <r>  -2.1733  1.0000</r>
       <r>  -2.1279  1.0000</r>
       <r>  -1.9326  1.0000</r>
       <r>  -1.6575  1.0000</r>
       <r>  -1.4471  1.0000</r>
       <r>  -1.4099  1.0000</r>
       <r>  -1.3808  1.0000</r>
       <r>  -1.3510  1.0000</r>
       <r>  -1.2967  1.0000</r>
       <r>  -1.1508  1.0000</r>
       <r>  -1.0272  1.0000</r>
       <r>  -0.8505  1.0000</r>
       <r>  -0.8181  1.0000</r>
       <r>  -0.7767  1.0000</r>
       <r>  -0.6931  1.0000</r>
       <r>  -0.5273  1.0131</r>
       <r>   0.0144  0.3102</r>
       <r>   1.6510  0.0000</r>
       <r>   3.1683  0.0000</r>
       <r>   5.4836  0.0000</r>
       <r>   6.6367  0.0000</r>
      </set>
      <set comment="kpoint 7">
       <r>  -7.0346  1.0000</r>
       <r>  -5.9843  1.0000</r>
       <r>  -4.6078  1.0000</r>
       <r>  -3.7849  1.0000</r>
       <r>  -3.6967  1.0000</r>
       <r>  -3.5238  1.0000</r>
       <r>  -3.1918  1.0000</r>
       <r>  -2.9026  1.0000</r>
       <r>  -2.8201  1.0000</r>
       <r>  -2.4994  1.0000</r>
       <r>  -2.3326  1.0000</r>
       <r>  -2.1812  1.0000</r>
       <r>  -2.1534  1.0000</r>
       <r>  -2.1255  1.0000</r>
       <r>  -1.9901  1.0000</r>
       <r>  -1.9160  1.0000</r>
       <r>  -1.7968  1.0000</r>
       <r>  -1.6453  1.0000</r>
       <r>  -1.4554  1.0000</r>
       <r>  -1.3936  1.0000</r>
       <r>  -1.2904  1.0000</r>
       <r>  -1.0817  1.0000</r>
       <r>  -1.0633  1.0000</r>
       <r>  -0.9967  1.0000</r>
       <r>  -0.8881  1.0000</r>
       <r>  -0.7363  1.0000</r>
       <r>  -0.5594  1.0000</r>
       <r>  -0.3991  0.9348</r>
       <r>   0.8072 -0.0297</r>
       <r>   2.7195  0.0000</r>
       <r>   4.4533  0.0000</r>
       <r>   6.3485  0.0000</r>
       <r>   7.6326  0.0000</r>
      </set>
      <set comment="kpoint 8">
       <r>  -5.7786  1.0000</r>
       <r>  -5.0399  1.0000</r>
       <r>  -4.2836  1.0000</r>
       <r>  -3.7154  1.0000</r>
       <r>  -3.3905  1.0000</r>
       <r>  -3.2825  1.0000</r>
       <r>  -2.8944  1.0000</r>
       <r>  -2.7992  1.0000</r>
       <r>  -2.6053  1.0000</r>
       <r>  -2.5371  1.0000</r>
       <r>  -2.3515  1.0000</r>
       <r>  -2.2678  1.0000</r>
       <r>  -2.2047  1.0000</r>
       <r>  -2.0256  1.0000</r>
       <r>  -1.9801  1.0000</r>
       <r>  -1.8960  1.0000</r>
       <r>  -1.8263  1.0000</r>
       <r>  -1.7783  1.0000</r>
       <r>  -1.6296  1.0000</r>
       <r>  -1.2832  1.0000</r>
       <r>  -1.1281  1.0000</r>
       <r>  -1.0858  1.0000</r>
       <r>  -0.8584  1.0000</r>
       <r>  -0.7620  1.0000</r>
       <r>  -0.7124  1.0000</r>
       <r>  -0.6506  1.0186</r>
       <r>  -0.6035  0.9752</r>
       <r>   0.1050  0.2218</r>
       <r>   1.8155  0.0000</r>
       <r>   3.9196  0.0000</r>
       <r>   5.5944  0.0000</r>
       <r>   5.8331  0.0000</r>
       <r>   7.0825  0.0000</r>
      </set>
      <set comment="kpoint 9">
       <r>  -4.6387  1.0000</r>
       <r>  -4.5109  1.0000</r>
       <r>  -4.2312  1.0000</r>
       <r>  -3.8511  1.0000</r>
       <r>  -3.5092  1.0000</r>
       <r>  -2.9695  1.0000</r>
       <r>  -2.9153  1.0000</r>
       <r>  -2.6302  1.0000</r>
       <r>  -2.5864  1.0000</r>
       <r>  -2.5036  1.0000</r>
       <r>  -2.4376  1.0000</r>
       <r>  -2.3199  1.0000</r>
       <r>  -2.2110  1.0000</r>
       <r>  -2.0799  1.0000</r>
       <r>  -1.9638  1.0000</r>
       <r>  -1.9232  1.0000</r>
       <r>  -1.7663  1.0000</r>
       <r>  -1.5171  1.0000</r>
       <r>  -1.4537  1.0000</r>
       <r>  -1.0837  1.0000</r>
       <r>  -1.0349  1.0000</r>
       <r>  -0.9121  1.0000</r>
       <r>  -0.7223  1.0000</r>
       <r>  -0.6908  1.0000</r>
       <r>  -0.6034  1.0000</r>
       <r>   0.2827  0.1101</r>
       <r>   0.3831  0.0289</r>
       <r>   1.0297 -0.0315</r>
       <r>   2.0992  0.0000</r>
       <r>   2.2447  0.0000</r>
       <r>   4.7302  0.0000</r>
       <r>   4.9523  0.0000</r>
       <r>   6.9680  0.0000</r>
      </set>
      <set comment="kpoint 10">
       <r>  -6.2332  1.0000</r>
       <r>  -5.2589  1.0000</r>
       <r>  -4.0699  1.0000</r>
       <r>  -3.5510  1.0000</r>
       <r>  -3.2909  1.0000</r>
       <r>  -3.2167  1.0000</r>
       <r>  -3.1284  1.0000</r>
       <r>  -3.0901  1.0000</r>
       <r>  -2.9782  1.0000</r>
       <r>  -2.9042  1.0000</r>
       <r>  -2.4866  1.0000</r>
       <r>  -2.3528  1.0000</r>
       <r>  -2.1813  1.0000</r>
       <r>  -1.9675  1.0000</r>
       <r>  -1.9372  1.0000</r>
       <r>  -1.8159  1.0000</r>
       <r>  -1.6572  1.0000</r>
       <r>  -1.6147  1.0000</r>
       <r>  -1.4586  1.0000</r>
       <r>  -1.4298  1.0000</r>
       <r>  -1.3282  1.0000</r>
       <r>  -1.2609  1.0000</r>
       <r>  -1.2238  1.0000</r>
       <r>  -0.9428  1.0000</r>
       <r>  -0.8586  1.0000</r>
       <r>  -0.6314  1.0000</r>
       <r>  -0.5457  0.9860</r>
       <r>   0.1877  0.1347</r>
       <r>   1.6874  0.0000</r>
       <r>   3.7054  0.0000</r>
       <r>   5.5231  0.0000</r>
       <r>   7.2183  0.0000</r>
       <r>   8.6082  0.0000</r>
      </set>
      <set comment="kpoint 11">
       <r>  -5.1704  1.0000</r>
       <r>  -4.4506  1.0000</r>
       <r>  -3.8393  1.0000</r>
       <r>  -3.5145  1.0000</r>
       <r>  -3.4820  1.0000</r>
       <r>  -3.2927  1.0000</r>
       <r>  -3.0686  1.0000</r>
       <r>  -3.0284  1.0000</r>
       <r>  -2.8363  1.0000</r>
       <r>  -2.7720  1.0000</r>
       <r>  -2.6120  1.0000</r>
       <r>  -2.4948  1.0000</r>
       <r>  -2.2638  1.0000</r>
       <r>  -1.8020  1.0000</r>
       <r>  -1.7716  1.0000</r>
       <r>  -1.7099  1.0000</r>
       <r>  -1.6181  1.0000</r>
       <r>  -1.5976  1.0000</r>
       <r>  -1.4396  1.0000</r>
       <r>  -1.1835  1.0000</r>
       <r>  -1.1565  1.0000</r>
       <r>  -0.9984  1.0000</r>
       <r>  -0.9097  1.0000</r>
       <r>  -0.8017  1.0000</r>
       <r>  -0.6943  1.0000</r>
       <r>  -0.5836  0.9259</r>
       <r>  -0.1194  0.5196</r>
       <r>   1.0726 -0.0352</r>
       <r>   2.8874  0.0000</r>
       <r>   4.9923  0.0000</r>
       <r>   6.1445  0.0000</r>
       <r>   6.8199  0.0000</r>
       <r>   7.6036  0.0000</r>
      </set>
      <set comment="kpoint 12">
       <r>  -4.3097  1.0000</r>
       <r>  -4.0528  1.0000</r>
       <r>  -3.9207  1.0000</r>
       <r>  -3.7517  1.0000</r>
       <r>  -3.6489  1.0000</r>
       <r>  -3.3234  1.0000</r>
       <r>  -3.1637  1.0000</r>
       <r>  -3.0786  1.0000</r>
       <r>  -2.8221  1.0000</r>
       <r>  -2.7090  1.0000</r>
       <r>  -2.4369  1.0000</r>
       <r>  -2.3792  1.0000</r>
       <r>  -2.2677  1.0000</r>
       <r>  -1.7650  1.0000</r>
       <r>  -1.7425  1.0000</r>
       <r>  -1.6973  1.0000</r>
       <r>  -1.6620  1.0000</r>
       <r>  -1.4892  1.0000</r>
       <r>  -1.3044  1.0000</r>
       <r>  -1.0664  1.0000</r>
       <r>  -0.9076  1.0000</r>
       <r>  -0.7978  1.0000</r>
       <r>  -0.6391  1.0000</r>
       <r>  -0.5950  1.0000</r>
       <r>  -0.5652  1.0000</r>
       <r>   0.5993  0.0067</r>
       <r>   1.3003 -0.0444</r>
       <r>   2.4957  0.0000</r>
       <r>   2.9056  0.0000</r>
       <r>   3.4007  0.0000</r>
       <r>   5.3317  0.0000</r>
       <r>   5.6975  0.0000</r>
       <r>   7.5483  0.0000</r>
      </set>
      <set comment="kpoint 13">
       <r>  -4.5993  1.0000</r>
       <r>  -3.9333  1.0000</r>
       <r>  -3.8105  1.0000</r>
       <r>  -3.6468  1.0000</r>
       <r>  -3.6223  1.0000</r>
       <r>  -3.5418  1.0000</r>
       <r>  -3.3144  1.0000</r>
       <r>  -3.2755  1.0000</r>
       <r>  -2.9429  1.0000</r>
       <r>  -2.7558  1.0000</r>
       <r>  -2.7345  1.0000</r>
       <r>  -2.2878  1.0000</r>
       <r>  -2.2185  1.0000</r>
       <r>  -1.4127  1.0000</r>
       <r>  -1.3945  1.0000</r>
       <r>  -1.3692  1.0000</r>
       <r>  -1.3237  1.0000</r>
       <r>  -1.2447  1.0000</r>
       <r>  -1.0667  1.0000</r>
       <r>  -1.0361  1.0000</r>
       <r>  -0.9438  1.0000</r>
       <r>  -0.9432  1.0000</r>
       <r>  -0.7878  1.0000</r>
       <r>  -0.7494  1.0000</r>
       <r>  -0.5349  1.0000</r>
       <r>  -0.4030  0.6210</r>
       <r>   0.8020 -0.0734</r>
       <r>   2.3587  0.0000</r>
       <r>   4.3482  0.0000</r>
       <r>   5.8735  0.0000</r>
       <r>   6.5708  0.0000</r>
       <r>   7.2843  0.0000</r>
       <r>   8.5617  0.0000</r>
      </set>
      <set comment="kpoint 14">
       <r>  -4.3069  1.0000</r>
       <r>  -4.0726  1.0000</r>
       <r>  -3.8722  1.0000</r>
       <r>  -3.8108  1.0000</r>
       <r>  -3.7010  1.0000</r>
       <r>  -3.5927  1.0000</r>
       <r>  -3.5009  1.0000</r>
       <r>  -3.3266  1.0000</r>
       <r>  -3.1426  1.0000</r>
       <r>  -2.9155  1.0000</r>
       <r>  -2.5386  1.0000</r>
       <r>  -2.0355  1.0000</r>
       <r>  -1.9233  1.0000</r>
       <r>  -1.3095  1.0000</r>
       <r>  -1.2575  1.0000</r>
       <r>  -1.1828  1.0000</r>
       <r>  -1.1516  1.0000</r>
       <r>  -1.0793  1.0000</r>
       <r>  -1.0217  1.0000</r>
       <r>  -0.9155  1.0000</r>
       <r>  -0.7624  1.0000</r>
       <r>  -0.6319  1.0000</r>
       <r>  -0.6129  1.0000</r>
       <r>  -0.5958  1.0000</r>
       <r>  -0.4641  1.0000</r>
       <r>   1.2166 -0.0403</r>
       <r>   2.4845 -0.0036</r>
       <r>   3.6179  0.0000</r>
       <r>   4.1658  0.0000</r>
       <r>   4.8510  0.0000</r>
       <r>   6.4044  0.0000</r>
       <r>   6.8554  0.0000</r>
       <r>   8.6701  0.0000</r>
      </set>
      <set comment="kpoint 15">
       <r>  -4.4121  1.0000</r>
       <r>  -4.2867  1.0000</r>
       <r>  -3.9782  1.0000</r>
       <r>  -3.9475  1.0000</r>
       <r>  -3.9292  1.0000</r>
       <r>  -3.6646  1.0000</r>
       <r>  -3.5154  1.0000</r>
       <r>  -3.4855  1.0000</r>
       <r>  -3.3906  1.0000</r>
       <r>  -2.7173  1.0000</r>
       <r>  -2.6801  1.0000</r>
       <r>  -1.7595  1.0000</r>
       <r>  -1.7179  1.0000</r>
       <r>  -1.1390  1.0000</r>
       <r>  -1.0377  1.0000</r>
       <r>  -0.8829  1.0000</r>
       <r>  -0.8301  1.0000</r>
       <r>  -0.7426  1.0000</r>
       <r>  -0.6975  1.0000</r>
       <r>  -0.6191  1.0000</r>
       <r>  -0.6067  1.0000</r>
       <r>  -0.5336  1.0000</r>
       <r>  -0.4992  1.0000</r>
       <r>  -0.3537  1.0000</r>
       <r>  -0.3114  1.0000</r>
       <r>   2.3779 -0.0122</r>
       <r>   3.6118  0.0000</r>
       <r>   4.0027  0.0000</r>
       <r>   5.3170  0.0000</r>
       <r>   6.0444  0.0000</r>
       <r>   7.6284  0.0000</r>
       <r>   8.2329  0.0000</r>
       <r>   9.3269  0.0000</r>
      </set>
     </set>
     <set comment="spin 2">
      <set comment="kpoint 1">
       <r>  -8.5368  1.0000</r>
       <r>  -7.3506  1.0000</r>
       <r>  -5.6434  1.0000</r>
       <r>  -4.3437  1.0000</r>
       <r>  -4.1699  1.0000</r>
       <r>  -3.4974  1.0000</r>
       <r>  -3.1225  1.0000</r>
       <r>  -2.5338  1.0000</r>
       <r>  -2.0507  1.0000</r>
       <r>  -1.8069  1.0000</r>
       <r>  -1.6175  1.0000</r>
       <r>  -1.6175  1.0000</r>
       <r>  -1.2659  1.0000</r>
       <r>  -1.2127  1.0000</r>
       <r>  -1.2127  1.0000</r>
       <r>  -0.9602  1.0000</r>
       <r>  -0.9286  1.0000</r>
       <r>  -0.7568  1.0000</r>
       <r>  -0.6411  1.0000</r>
       <r>  -0.5981  1.0000</r>
       <r>  -0.5981  1.0000</r>
       <r>  -0.4474  1.0000</r>
       <r>  -0.1817  1.0000</r>
       <r>  -0.0218  0.8765</r>
       <r>  -0.0218  0.1538</r>
       <r>   0.0826  0.0000</r>
       <r>   0.1193  0.0000</r>
       <r>   0.2476  0.0000</r>
       <r>   0.2476  0.0000</r>
       <r>   0.6270  0.0000</r>
       <r>   1.9283  0.0000</r>
       <r>   4.7397  0.0000</r>
       <r>   5.8783  0.0000</r>
      </set>
      <set comment="kpoint 2">
       <r>  -8.2239  1.0000</r>
       <r>  -7.0554  1.0000</r>
       <r>  -5.3816  1.0000</r>
       <r>  -4.1241  1.0000</r>
       <r>  -3.9846  1.0000</r>
       <r>  -3.4018  1.0000</r>
       <r>  -3.0438  1.0000</r>
       <r>  -2.4884  1.0000</r>
       <r>  -2.0422  1.0000</r>
       <r>  -1.7349  1.0000</r>
       <r>  -1.6524  1.0000</r>
       <r>  -1.5768  1.0000</r>
       <r>  -1.5313  1.0000</r>
       <r>  -1.3696  1.0000</r>
       <r>  -1.2554  1.0000</r>
       <r>  -0.9256  1.0000</r>
       <r>  -0.8829  1.0000</r>
       <r>  -0.8139  1.0000</r>
       <r>  -0.7351  1.0000</r>
       <r>  -0.6799  1.0000</r>
       <r>  -0.5361  1.0000</r>
       <r>  -0.3877  1.0000</r>
       <r>  -0.3519  1.0000</r>
       <r>  -0.3374  1.0157</r>
       <r>  -0.0127  0.4116</r>
       <r>  -0.0029  0.0000</r>
       <r>   0.0124  0.0000</r>
       <r>   0.1128  0.0000</r>
       <r>   0.2577  0.0000</r>
       <r>   1.3803  0.0000</r>
       <r>   2.7393  0.0000</r>
       <r>   5.0385  0.0000</r>
       <r>   6.2205  0.0000</r>
      </set>
      <set comment="kpoint 3">
       <r>  -7.3252  1.0000</r>
       <r>  -6.2353  1.0000</r>
       <r>  -4.7333  1.0000</r>
       <r>  -3.6567  1.0000</r>
       <r>  -3.5251  1.0000</r>
       <r>  -3.1606  1.0000</r>
       <r>  -2.7848  1.0000</r>
       <r>  -2.3015  1.0000</r>
       <r>  -2.0913  1.0000</r>
       <r>  -1.7645  1.0000</r>
       <r>  -1.6842  1.0000</r>
       <r>  -1.6336  1.0000</r>
       <r>  -1.6040  1.0000</r>
       <r>  -1.5004  1.0000</r>
       <r>  -1.3874  1.0000</r>
       <r>  -1.1928  1.0000</r>
       <r>  -1.0901  1.0000</r>
       <r>  -1.0633  1.0000</r>
       <r>  -0.8843  1.0000</r>
       <r>  -0.6534  1.0000</r>
       <r>  -0.5900  1.0000</r>
       <r>  -0.5683  1.0000</r>
       <r>  -0.4343  1.0000</r>
       <r>  -0.4048  1.0000</r>
       <r>  -0.1606  1.0505</r>
       <r>   0.0029  0.0000</r>
       <r>   0.1833  0.0000</r>
       <r>   0.1968  0.0000</r>
       <r>   0.7420  0.0000</r>
       <r>   2.5415  0.0000</r>
       <r>   4.2054  0.0000</r>
       <r>   5.9124  0.0000</r>
       <r>   7.2377  0.0000</r>
      </set>
      <set comment="kpoint 4">
       <r>  -5.9892  1.0000</r>
       <r>  -5.1573  1.0000</r>
       <r>  -4.1847  1.0000</r>
       <r>  -3.4701  1.0000</r>
       <r>  -3.1340  1.0000</r>
       <r>  -2.8508  1.0000</r>
       <r>  -2.3208  1.0000</r>
       <r>  -2.1492  1.0000</r>
       <r>  -1.8956  1.0000</r>
       <r>  -1.8535  1.0000</r>
       <r>  -1.7304  1.0000</r>
       <r>  -1.5642  1.0000</r>
       <r>  -1.5597  1.0000</r>
       <r>  -1.5383  1.0000</r>
       <r>  -1.4846  1.0000</r>
       <r>  -1.3001  1.0000</r>
       <r>  -1.2557  1.0000</r>
       <r>  -1.2113  1.0000</r>
       <r>  -1.1654  1.0000</r>
       <r>  -0.7496  1.0000</r>
       <r>  -0.5562  1.0000</r>
       <r>  -0.3055  1.0000</r>
       <r>  -0.1743  1.0640</r>
       <r>  -0.1568  0.9920</r>
       <r>  -0.0236  0.3218</r>
       <r>   0.0354  0.0000</r>
       <r>   0.0817  0.0000</r>
       <r>   0.1712  0.0000</r>
       <r>   1.5958  0.0000</r>
       <r>   3.6701  0.0000</r>
       <r>   5.5736  0.0000</r>
       <r>   5.6068  0.0000</r>
       <r>   7.1131  0.0000</r>
      </set>
      <set comment="kpoint 5">
       <r>  -4.6195  1.0000</r>
       <r>  -4.4035  1.0000</r>
       <r>  -4.0474  1.0000</r>
       <r>  -3.5572  1.0000</r>
       <r>  -3.2829  1.0000</r>
       <r>  -2.3828  1.0000</r>
       <r>  -2.1860  1.0000</r>
       <r>  -2.0086  1.0000</r>
       <r>  -1.9443  1.0000</r>
       <r>  -1.7922  1.0000</r>
       <r>  -1.6901  1.0000</r>
       <r>  -1.6764  1.0000</r>
       <r>  -1.6643  1.0000</r>
       <r>  -1.5764  1.0000</r>
       <r>  -1.5639  1.0000</r>
       <r>  -1.3466  1.0000</r>
       <r>  -1.2448  1.0000</r>
       <r>  -0.8951  1.0000</r>
       <r>  -0.8222  1.0000</r>
       <r>  -0.4810  1.0000</r>
       <r>  -0.2466  1.0000</r>
       <r>  -0.1655  1.0000</r>
       <r>  -0.0565  0.6511</r>
       <r>   0.0785 -0.0291</r>
       <r>   0.1323 -0.0272</r>
       <r>   0.2045  0.0000</r>
       <r>   0.4290  0.0000</r>
       <r>   0.7428  0.0000</r>
       <r>   1.7375  0.0000</r>
       <r>   2.3235  0.0000</r>
       <r>   4.7546  0.0000</r>
       <r>   4.8979  0.0000</r>
       <r>   7.0335  0.0000</r>
      </set>
      <set comment="kpoint 6">
       <r>  -7.9156  1.0000</r>
       <r>  -6.7637  1.0000</r>
       <r>  -5.1223  1.0000</r>
       <r>  -3.9081  1.0000</r>
       <r>  -3.8082  1.0000</r>
       <r>  -3.2984  1.0000</r>
       <r>  -2.9685  1.0000</r>
       <r>  -2.4616  1.0000</r>
       <r>  -2.0848  1.0000</r>
       <r>  -1.6638  1.0000</r>
       <r>  -1.6520  1.0000</r>
       <r>  -1.6292  1.0000</r>
       <r>  -1.6035  1.0000</r>
       <r>  -1.5246  1.0000</r>
       <r>  -1.2410  1.0000</r>
       <r>  -1.0492  1.0000</r>
       <r>  -0.9045  1.0000</r>
       <r>  -0.8514  1.0000</r>
       <r>  -0.7918  1.0000</r>
       <r>  -0.7200  1.0000</r>
       <r>  -0.6383  1.0000</r>
       <r>  -0.5606  1.0000</r>
       <r>  -0.4787  1.0000</r>
       <r>  -0.2054  1.0024</r>
       <r>  -0.1562  1.0490</r>
       <r>  -0.0531  0.0000</r>
       <r>  -0.0235  0.0000</r>
       <r>   0.2357  0.0000</r>
       <r>   0.4892  0.0000</r>
       <r>   1.8816  0.0000</r>
       <r>   3.3062  0.0000</r>
       <r>   5.3361  0.0000</r>
       <r>   6.5617  0.0000</r>
      </set>
      <set comment="kpoint 7">
       <r>  -7.0336  1.0000</r>
       <r>  -5.9573  1.0000</r>
       <r>  -4.4858  1.0000</r>
       <r>  -3.4565  1.0000</r>
       <r>  -3.3774  1.0000</r>
       <r>  -3.0459  1.0000</r>
       <r>  -2.7356  1.0000</r>
       <r>  -2.3509  1.0000</r>
       <r>  -2.2250  1.0000</r>
       <r>  -1.9786  1.0000</r>
       <r>  -1.7609  1.0000</r>
       <r>  -1.5592  1.0000</r>
       <r>  -1.5254  1.0000</r>
       <r>  -1.4945  1.0000</r>
       <r>  -1.3645  1.0000</r>
       <r>  -1.3048  1.0000</r>
       <r>  -1.1597  1.0000</r>
       <r>  -1.0491  1.0000</r>
       <r>  -0.8488  1.0000</r>
       <r>  -0.8203  1.0000</r>
       <r>  -0.6828  1.0000</r>
       <r>  -0.5062  1.0000</r>
       <r>  -0.4548  1.0000</r>
       <r>  -0.3138  1.0000</r>
       <r>  -0.2779  1.0848</r>
       <r>  -0.0002  0.0000</r>
       <r>   0.1916  0.0000</r>
       <r>   0.2036  0.0000</r>
       <r>   1.1983  0.0000</r>
       <r>   2.9306  0.0000</r>
       <r>   4.5934  0.0000</r>
       <r>   6.2089  0.0000</r>
       <r>   7.5722  0.0000</r>
      </set>
      <set comment="kpoint 8">
       <r>  -5.7371  1.0000</r>
       <r>  -4.9100  1.0000</r>
       <r>  -3.9712  1.0000</r>
       <r>  -3.2887  1.0000</r>
       <r>  -2.9371  1.0000</r>
       <r>  -2.9115  1.0000</r>
       <r>  -2.4040  1.0000</r>
       <r>  -2.3370  1.0000</r>
       <r>  -2.0849  1.0000</r>
       <r>  -2.0207  1.0000</r>
       <r>  -1.8120  1.0000</r>
       <r>  -1.7049  1.0000</r>
       <r>  -1.6473  1.0000</r>
       <r>  -1.4348  1.0000</r>
       <r>  -1.4035  1.0000</r>
       <r>  -1.3098  1.0000</r>
       <r>  -1.2467  1.0000</r>
       <r>  -1.1226  1.0000</r>
       <r>  -1.0418  1.0000</r>
       <r>  -0.6869  1.0000</r>
       <r>  -0.4742  1.0000</r>
       <r>  -0.4558  1.0000</r>
       <r>  -0.2296  1.0624</r>
       <r>  -0.1662  0.9904</r>
       <r>  -0.0718  0.5069</r>
       <r>   0.0725  0.0000</r>
       <r>   0.1196  0.0000</r>
       <r>   0.6045  0.0000</r>
       <r>   2.0892  0.0000</r>
       <r>   4.0808  0.0000</r>
       <r>   5.8105  0.0000</r>
       <r>   5.9593  0.0000</r>
       <r>   7.2942  0.0000</r>
      </set>
      <set comment="kpoint 9">
       <r>  -4.4279  1.0000</r>
       <r>  -4.1901  1.0000</r>
       <r>  -3.8656  1.0000</r>
       <r>  -3.4231  1.0000</r>
       <r>  -3.1806  1.0000</r>
       <r>  -2.5151  1.0000</r>
       <r>  -2.3711  1.0000</r>
       <r>  -2.1827  1.0000</r>
       <r>  -2.0800  1.0000</r>
       <r>  -2.0267  1.0000</r>
       <r>  -1.8513  1.0000</r>
       <r>  -1.7817  1.0000</r>
       <r>  -1.6862  1.0000</r>
       <r>  -1.5018  1.0000</r>
       <r>  -1.4040  1.0000</r>
       <r>  -1.3184  1.0000</r>
       <r>  -1.1723  1.0000</r>
       <r>  -0.9611  1.0000</r>
       <r>  -0.8384  1.0000</r>
       <r>  -0.5229  1.0000</r>
       <r>  -0.3143  1.0000</r>
       <r>  -0.2586  1.0000</r>
       <r>  -0.0508  0.3494</r>
       <r>  -0.0437  0.2735</r>
       <r>   0.1097 -0.0216</r>
       <r>   0.7989  0.0000</r>
       <r>   0.8347  0.0000</r>
       <r>   1.3078  0.0000</r>
       <r>   2.3231  0.0000</r>
       <r>   2.5797  0.0000</r>
       <r>   4.9617  0.0000</r>
       <r>   5.1556  0.0000</r>
       <r>   7.1855  0.0000</r>
      </set>
      <set comment="kpoint 10">
       <r>  -6.2178  1.0000</r>
       <r>  -5.2060  1.0000</r>
       <r>  -3.8963  1.0000</r>
       <r>  -3.1934  1.0000</r>
       <r>  -2.9798  1.0000</r>
       <r>  -2.7128  1.0000</r>
       <r>  -2.5770  1.0000</r>
       <r>  -2.5238  1.0000</r>
       <r>  -2.4012  1.0000</r>
       <r>  -2.3930  1.0000</r>
       <r>  -1.9620  1.0000</r>
       <r>  -1.7676  1.0000</r>
       <r>  -1.6012  1.0000</r>
       <r>  -1.3030  1.0000</r>
       <r>  -1.2710  1.0000</r>
       <r>  -1.1625  1.0000</r>
       <r>  -1.1007  1.0000</r>
       <r>  -0.9999  1.0000</r>
       <r>  -0.9477  1.0000</r>
       <r>  -0.8426  1.0000</r>
       <r>  -0.6566  1.0000</r>
       <r>  -0.6417  1.0000</r>
       <r>  -0.6312  1.0000</r>
       <r>  -0.3743  1.0128</r>
       <r>  -0.1049  0.8893</r>
       <r>  -0.0277  0.0000</r>
       <r>   0.2132  0.0000</r>
       <r>   0.7242  0.0000</r>
       <r>   2.0399  0.0000</r>
       <r>   3.8995  0.0000</r>
       <r>   5.6447  0.0000</r>
       <r>   7.0837  0.0000</r>
       <r>   8.5570  0.0000</r>
      </set>
      <set comment="kpoint 11">
       <r>  -5.0926  1.0000</r>
       <r>  -4.2868  1.0000</r>
       <r>  -3.4784  1.0000</r>
       <r>  -3.1401  1.0000</r>
       <r>  -2.9961  1.0000</r>
       <r>  -2.7382  1.0000</r>
       <r>  -2.6103  1.0000</r>
       <r>  -2.5222  1.0000</r>
       <r>  -2.3095  1.0000</r>
       <r>  -2.2819  1.0000</r>
       <r>  -2.1064  1.0000</r>
       <r>  -1.9394  1.0000</r>
       <r>  -1.7144  1.0000</r>
       <r>  -1.1683  1.0000</r>
       <r>  -1.1390  1.0000</r>
       <r>  -1.1079  1.0000</r>
       <r>  -1.0404  1.0000</r>
       <r>  -0.9667  1.0000</r>
       <r>  -0.8665  1.0000</r>
       <r>  -0.5851  1.0000</r>
       <r>  -0.5324  1.0000</r>
       <r>  -0.4171  1.0115</r>
       <r>  -0.2997  1.0680</r>
       <r>  -0.2049  0.9751</r>
       <r>   0.0020  0.0774</r>
       <r>   0.1559  0.0000</r>
       <r>   0.4292  0.0000</r>
       <r>   1.4981  0.0000</r>
       <r>   3.1515  0.0000</r>
       <r>   5.1482  0.0000</r>
       <r>   6.3461  0.0000</r>
       <r>   6.9467  0.0000</r>
       <r>   7.7767  0.0000</r>
      </set>
      <set comment="kpoint 12">
       <r>  -4.0761  1.0000</r>
       <r>  -3.6895  1.0000</r>
       <r>  -3.5087  1.0000</r>
       <r>  -3.3219  1.0000</r>
       <r>  -3.2172  1.0000</r>
       <r>  -2.8128  1.0000</r>
       <r>  -2.7097  1.0000</r>
       <r>  -2.5689  1.0000</r>
       <r>  -2.3233  1.0000</r>
       <r>  -2.1956  1.0000</r>
       <r>  -1.9430  1.0000</r>
       <r>  -1.8521  1.0000</r>
       <r>  -1.7465  1.0000</r>
       <r>  -1.1548  1.0000</r>
       <r>  -1.1431  1.0000</r>
       <r>  -1.1218  1.0000</r>
       <r>  -1.0371  1.0000</r>
       <r>  -0.8921  1.0000</r>
       <r>  -0.6357  1.0000</r>
       <r>  -0.4085  1.0000</r>
       <r>  -0.3038  1.0000</r>
       <r>  -0.2165  1.0323</r>
       <r>   0.0102  0.2115</r>
       <r>   0.1118 -0.0257</r>
       <r>   0.1266 -0.0092</r>
       <r>   1.0510  0.0000</r>
       <r>   1.6777  0.0000</r>
       <r>   2.7613  0.0000</r>
       <r>   3.2002  0.0000</r>
       <r>   3.6259  0.0000</r>
       <r>   5.5478  0.0000</r>
       <r>   5.8991  0.0000</r>
       <r>   7.7149  0.0000</r>
      </set>
      <set comment="kpoint 13">
       <r>  -4.4128  1.0000</r>
       <r>  -3.6780  1.0000</r>
       <r>  -3.4332  1.0000</r>
       <r>  -3.1382  1.0000</r>
       <r>  -3.0924  1.0000</r>
       <r>  -3.0531  1.0000</r>
       <r>  -2.8751  1.0000</r>
       <r>  -2.7012  1.0000</r>
       <r>  -2.4509  1.0000</r>
       <r>  -2.2006  1.0000</r>
       <r>  -2.1930  1.0000</r>
       <r>  -1.7619  1.0000</r>
       <r>  -1.6756  1.0000</r>
       <r>  -0.7873  1.0000</r>
       <r>  -0.7623  1.0000</r>
       <r>  -0.7376  1.0000</r>
       <r>  -0.6911  1.0000</r>
       <r>  -0.6887  1.0000</r>
       <r>  -0.5246  1.0000</r>
       <r>  -0.3867  1.0085</r>
       <r>  -0.3595  1.0240</r>
       <r>  -0.2811  1.0495</r>
       <r>  -0.2578  1.0359</r>
       <r>  -0.0141  0.2815</r>
       <r>   0.0465 -0.0170</r>
       <r>   0.2219  0.0000</r>
       <r>   1.2186  0.0000</r>
       <r>   2.6830  0.0000</r>
       <r>   4.5640  0.0000</r>
       <r>   6.0411  0.0000</r>
       <r>   6.7007  0.0000</r>
       <r>   7.4543  0.0000</r>
       <r>   8.6394  0.0000</r>
      </set>
      <set comment="kpoint 14">
       <r>  -4.0003  1.0000</r>
       <r>  -3.7192  1.0000</r>
       <r>  -3.4370  1.0000</r>
       <r>  -3.2899  1.0000</r>
       <r>  -3.2195  1.0000</r>
       <r>  -3.0807  1.0000</r>
       <r>  -3.0451  1.0000</r>
       <r>  -2.7812  1.0000</r>
       <r>  -2.6544  1.0000</r>
       <r>  -2.3653  1.0000</r>
       <r>  -1.9792  1.0000</r>
       <r>  -1.4943  1.0000</r>
       <r>  -1.3429  1.0000</r>
       <r>  -0.7414  1.0000</r>
       <r>  -0.7072  1.0000</r>
       <r>  -0.5499  1.0000</r>
       <r>  -0.5067  1.0000</r>
       <r>  -0.4315  1.0000</r>
       <r>  -0.4159  1.0000</r>
       <r>  -0.2853  1.0399</r>
       <r>  -0.1645  0.9854</r>
       <r>  -0.0086  0.3701</r>
       <r>   0.0265  0.1207</r>
       <r>   0.1279 -0.0123</r>
       <r>   0.2707  0.0000</r>
       <r>   1.5135  0.0000</r>
       <r>   2.7630  0.0000</r>
       <r>   3.8251  0.0000</r>
       <r>   4.3888  0.0000</r>
       <r>   5.0467  0.0000</r>
       <r>   6.5736  0.0000</r>
       <r>   7.0345  0.0000</r>
       <r>   8.7827  0.0000</r>
      </set>
      <set comment="kpoint 15">
       <r>  -4.0524  1.0000</r>
       <r>  -3.9460  1.0000</r>
       <r>  -3.5696  1.0000</r>
       <r>  -3.4052  1.0000</r>
       <r>  -3.3973  1.0000</r>
       <r>  -3.2089  1.0000</r>
       <r>  -2.9791  1.0000</r>
       <r>  -2.9195  1.0000</r>
       <r>  -2.9034  1.0000</r>
       <r>  -2.1520  1.0000</r>
       <r>  -2.1100  1.0000</r>
       <r>  -1.1430  1.0000</r>
       <r>  -1.0983  1.0000</r>
       <r>  -0.5790  1.0000</r>
       <r>  -0.5125  1.0000</r>
       <r>  -0.2385  1.0000</r>
       <r>  -0.1626  1.0000</r>
       <r>  -0.1200  1.0000</r>
       <r>  -0.0953  1.0000</r>
       <r>  -0.0120  0.4860</r>
       <r>   0.0437  0.1620</r>
       <r>   0.1460 -0.0070</r>
       <r>   0.1982 -0.0165</r>
       <r>   0.3917  0.0000</r>
       <r>   0.4487  0.0000</r>
       <r>   2.4972  0.0000</r>
       <r>   3.7108  0.0000</r>
       <r>   4.1757  0.0000</r>
       <r>   5.4477  0.0000</r>
       <r>   6.2148  0.0000</r>
       <r>   7.7662  0.0000</r>
       <r>   8.3691  0.0000</r>
       <r>   9.5504  0.0000</r>
      </set>
     </set>
    </set>
   </array>
  </eigenvalues>
  <dos>
   <i name="efermi">     -0.05569505</i>
   <total>
    <array>
     <dimension dim="1">gridpoints</dimension>
     <dimension dim="2">spin</dimension>
     <field>energy</field>
     <field>total</field>
     <field>integrated</field>
     <set>
      <set comment="spin 1">
       <r> -10.5368  0.0000  0.0000</r>
       <r> -10.4632  0.0000  0.0000</r>
       <r> -10.3895  0.0000  0.0000</r>
       <r> -10.3159  0.0000  0.0000</r>
       <r> -10.2423  0.0000  0.0000</r>
       <r> -10.1687  0.0000  0.0000</r>
       <r> -10.0950  0.0000  0.0000</r>
       <r> -10.0214  0.0000  0.0000</r>
       <r>  -9.9478  0.0000  0.0000</r>
       <r>  -9.8742  0.0000  0.0000</r>
       <r>  -9.8005  0.0000  0.0000</r>
       <r>  -9.7269  0.0000  0.0000</r>
       <r>  -9.6533  0.0000  0.0000</r>
       <r>  -9.5797  0.0000  0.0000</r>
       <r>  -9.5060  0.0000  0.0000</r>
       <r>  -9.4324  0.0000  0.0000</r>
       <r>  -9.3588  0.0000  0.0000</r>
       <r>  -9.2852  0.0000  0.0000</r>
       <r>  -9.2115  0.0000  0.0000</r>
       <r>  -9.1379  0.0000  0.0000</r>
       <r>  -9.0643  0.0000  0.0000</r>
       <r>  -8.9907  0.0000  0.0000</r>
       <r>  -8.9171  0.0000  0.0000</r>
       <r>  -8.8434  0.0000  0.0000</r>
       <r>  -8.7698  0.0000  0.0000</r>
       <r>  -8.6962  0.0000  0.0000</r>
       <r>  -8.6226  0.0000  0.0000</r>
       <r>  -8.5489  0.0000  0.0000</r>
       <r>  -8.4753  0.0266  0.0007</r>
       <r>  -8.4017  0.0641  0.0040</r>
       <r>  -8.3281  0.1017  0.0101</r>
       <r>  -8.2544  0.1392  0.0190</r>
       <r>  -8.1808  0.1546  0.0303</r>
       <r>  -8.1072  0.1430  0.0412</r>
       <r>  -8.0336  0.1314  0.0513</r>
       <r>  -7.9599  0.1197  0.0606</r>
       <r>  -7.8863  0.1131  0.0690</r>
       <r>  -7.8127  0.1180  0.0775</r>
       <r>  -7.7391  0.1230  0.0864</r>
       <r>  -7.6654  0.1279  0.0956</r>
       <r>  -7.5918  0.1328  0.1052</r>
       <r>  -7.5182  0.1378  0.1152</r>
       <r>  -7.4446  0.1427  0.1255</r>
       <r>  -7.3710  0.1476  0.1362</r>
       <r>  -7.2973  0.1793  0.1480</r>
       <r>  -7.2237  0.2180  0.1626</r>
       <r>  -7.1501  0.2567  0.1801</r>
       <r>  -7.0765  0.2954  0.2004</r>
       <r>  -7.0028  0.3003  0.2227</r>
       <r>  -6.9292  0.2906  0.2444</r>
       <r>  -6.8556  0.2809  0.2655</r>
       <r>  -6.7820  0.2713  0.2858</r>
       <r>  -6.7083  0.2762  0.3058</r>
       <r>  -6.6347  0.2844  0.3265</r>
       <r>  -6.5611  0.2926  0.3477</r>
       <r>  -6.4875  0.3008  0.3696</r>
       <r>  -6.4138  0.3090  0.3920</r>
       <r>  -6.3402  0.3172  0.4151</r>
       <r>  -6.2666  0.3254  0.4387</r>
       <r>  -6.1930  0.3295  0.4628</r>
       <r>  -6.1193  0.3340  0.4872</r>
       <r>  -6.0457  0.3385  0.5120</r>
       <r>  -5.9721  0.3477  0.5372</r>
       <r>  -5.8985  0.3586  0.5632</r>
       <r>  -5.8248  0.3695  0.5900</r>
       <r>  -5.7512  0.3797  0.6176</r>
       <r>  -5.6776  0.3887  0.6459</r>
       <r>  -5.6040  0.4545  0.6769</r>
       <r>  -5.5304  0.5209  0.7128</r>
       <r>  -5.4567  0.5873  0.7536</r>
       <r>  -5.3831  0.6172  0.7985</r>
       <r>  -5.3095  0.6191  0.8440</r>
       <r>  -5.2359  0.6359  0.8900</r>
       <r>  -5.1622  0.6890  0.9381</r>
       <r>  -5.0886  0.7439  0.9908</r>
       <r>  -5.0150  0.7939  1.0475</r>
       <r>  -4.9414  0.8343  1.1075</r>
       <r>  -4.8677  0.8748  1.1704</r>
       <r>  -4.7941  1.1908  1.2449</r>
       <r>  -4.7205  1.2300  1.3340</r>
       <r>  -4.6469  1.4574  1.4399</r>
       <r>  -4.5732  1.3561  1.5393</r>
       <r>  -4.4996  1.3445  1.6411</r>
       <r>  -4.4260  1.8975  1.7573</r>
       <r>  -4.3524  3.0492  1.9691</r>
       <r>  -4.2787  2.2230  2.2293</r>
       <r>  -4.2051  1.9273  2.3806</r>
       <r>  -4.1315  2.0264  2.5259</r>
       <r>  -4.0579  4.5808  2.7146</r>
       <r>  -3.9843  1.7376  2.8646</r>
       <r>  -3.9106  5.6540  3.1475</r>
       <r>  -3.8370  6.2569  3.6050</r>
       <r>  -3.7634  4.6606  3.9464</r>
       <r>  -3.6898  4.0149  4.2061</r>
       <r>  -3.6161  5.4022  4.5585</r>
       <r>  -3.5425  5.7633  5.0015</r>
       <r>  -3.4689  4.2543  5.4369</r>
       <r>  -3.3953  3.5007  5.7224</r>
       <r>  -3.3216  3.8640  6.0044</r>
       <r>  -3.2480  3.5167  6.3061</r>
       <r>  -3.1744  3.3614  6.5389</r>
       <r>  -3.1008  4.4035  6.8130</r>
       <r>  -3.0271  3.9599  7.1538</r>
       <r>  -2.9535  4.2556  7.4429</r>
       <r>  -2.8799  5.6314  7.8037</r>
       <r>  -2.8063  6.0554  8.2453</r>
       <r>  -2.7326  5.0237  8.6912</r>
       <r>  -2.6590  6.0324  9.0924</r>
       <r>  -2.5854  4.7732  9.4438</r>
       <r>  -2.5118  4.6011  9.7892</r>
       <r>  -2.4381  5.1037 10.1511</r>
       <r>  -2.3645  7.3465 10.6296</r>
       <r>  -2.2909 11.0262 11.2952</r>
       <r>  -2.2173  9.7030 11.9556</r>
       <r>  -2.1437  4.3199 12.6556</r>
       <r>  -2.0700  4.2723 13.0631</r>
       <r>  -1.9964  6.2068 13.4107</r>
       <r>  -1.9228  6.8062 13.9853</r>
       <r>  -1.8492  6.8641 14.5656</r>
       <r>  -1.7755  8.0787 15.1322</r>
       <r>  -1.7019  6.3887 15.6701</r>
       <r>  -1.6283  7.0758 16.1483</r>
       <r>  -1.5547  5.8750 16.6034</r>
       <r>  -1.4810  5.9338 17.1291</r>
       <r>  -1.4074  7.3180 17.6146</r>
       <r>  -1.3338  6.5123 18.1233</r>
       <r>  -1.2602  8.4909 18.7164</r>
       <r>  -1.1865  7.6712 19.2603</r>
       <r>  -1.1129  9.7455 19.8887</r>
       <r>  -1.0393  9.3558 20.6589</r>
       <r>  -0.9657  8.5761 21.2789</r>
       <r>  -0.8920  7.9068 21.8941</r>
       <r>  -0.8184  8.3108 22.6163</r>
       <r>  -0.7448 11.0036 23.2736</r>
       <r>  -0.6712 11.2574 24.1287</r>
       <r>  -0.5976 17.2237 24.9405</r>
       <r>  -0.5239  5.7091 25.5727</r>
       <r>  -0.4503  3.1864 25.9311</r>
       <r>  -0.3767  1.9030 26.1052</r>
       <r>  -0.3031  1.1500 26.2474</r>
       <r>  -0.2294  1.1093 26.3306</r>
       <r>  -0.1558  1.0686 26.4107</r>
       <r>  -0.0822  1.0083 26.4870</r>
       <r>  -0.0086  1.1268 26.5660</r>
       <r>   0.0651  1.1961 26.6556</r>
       <r>   0.1387  1.1270 26.7414</r>
       <r>   0.2123  1.0548 26.8214</r>
       <r>   0.2859  1.0759 26.8985</r>
       <r>   0.3596  1.0280 26.9760</r>
       <r>   0.4332  0.9167 27.0465</r>
       <r>   0.5068  0.8834 27.1127</r>
       <r>   0.5804  0.8524 27.1765</r>
       <r>   0.6541  0.7635 27.2346</r>
       <r>   0.7277  0.7542 27.2904</r>
       <r>   0.8013  0.7448 27.3456</r>
       <r>   0.8749  0.7338 27.4000</r>
       <r>   0.9486  0.7260 27.4537</r>
       <r>   1.0222  0.7182 27.5069</r>
       <r>   1.0958  0.6577 27.5566</r>
       <r>   1.1694  0.6566 27.6049</r>
       <r>   1.2430  0.6260 27.6528</r>
       <r>   1.3167  0.6058 27.6984</r>
       <r>   1.3903  0.6347 27.7435</r>
       <r>   1.4639  0.6918 27.7923</r>
       <r>   1.5375  0.8348 27.8455</r>
       <r>   1.6112  0.8105 27.9061</r>
       <r>   1.6848  0.7885 27.9649</r>
       <r>   1.7584  0.7645 28.0221</r>
       <r>   1.8320  0.7394 28.0775</r>
       <r>   1.9057  0.7106 28.1308</r>
       <r>   1.9793  0.6878 28.1823</r>
       <r>   2.0529  0.8705 28.2464</r>
       <r>   2.1265  0.8487 28.3097</r>
       <r>   2.2002  0.8671 28.3729</r>
       <r>   2.2738  0.7364 28.4331</r>
       <r>   2.3474  0.7411 28.4875</r>
       <r>   2.4210  0.7065 28.5529</r>
       <r>   2.4947  0.7253 28.6053</r>
       <r>   2.5683  0.7415 28.6597</r>
       <r>   2.6419  0.7553 28.7146</r>
       <r>   2.7155  0.7515 28.7701</r>
       <r>   2.7892  0.7499 28.8254</r>
       <r>   2.8628  0.7464 28.8805</r>
       <r>   2.9364  0.6834 28.9331</r>
       <r>   3.0100  0.6811 28.9834</r>
       <r>   3.0836  0.6789 29.0334</r>
       <r>   3.1573  0.6767 29.0833</r>
       <r>   3.2309  0.6781 29.1332</r>
       <r>   3.3045  0.6802 29.1832</r>
       <r>   3.3781  0.6823 29.2333</r>
       <r>   3.4518  0.6756 29.2832</r>
       <r>   3.5254  0.6734 29.3330</r>
       <r>   3.5990  0.6493 29.3817</r>
       <r>   3.6726  0.7006 29.4451</r>
       <r>   3.7463  0.6628 29.4953</r>
       <r>   3.8199  0.6245 29.5427</r>
       <r>   3.8935  0.5862 29.5872</r>
       <r>   3.9671  0.5591 29.6293</r>
       <r>   4.0408  0.4191 29.6773</r>
       <r>   4.1144  0.4168 29.7081</r>
       <r>   4.1880  0.5549 29.7420</r>
       <r>   4.2616  0.4851 29.7803</r>
       <r>   4.3353  0.4152 29.8134</r>
       <r>   4.4089  0.3990 29.8431</r>
       <r>   4.4825  0.3983 29.8724</r>
       <r>   4.5561  0.6506 29.9099</r>
       <r>   4.6297  0.6877 29.9592</r>
       <r>   4.7034  0.9209 30.0126</r>
       <r>   4.7770  0.8199 30.0754</r>
       <r>   4.8506  0.8644 30.1374</r>
       <r>   4.9242  0.9833 30.2069</r>
       <r>   4.9979  0.9406 30.2766</r>
       <r>   5.0715  0.9942 30.3478</r>
       <r>   5.1451  1.0479 30.4230</r>
       <r>   5.2187  1.0796 30.5018</r>
       <r>   5.2924  1.0782 30.5812</r>
       <r>   5.3660  0.9918 30.6696</r>
       <r>   5.4396  0.9307 30.7404</r>
       <r>   5.5132  0.8831 30.8068</r>
       <r>   5.5869  0.8899 30.8719</r>
       <r>   5.6605  0.8941 30.9376</r>
       <r>   5.7341  0.8690 31.0026</r>
       <r>   5.8077  0.8626 31.0664</r>
       <r>   5.8814  0.8579 31.1297</r>
       <r>   5.9550  0.8477 31.1925</r>
       <r>   6.0286  0.8653 31.2554</r>
       <r>   6.1022  0.8104 31.3291</r>
       <r>   6.1759  0.7969 31.3881</r>
       <r>   6.2495  0.7713 31.4458</r>
       <r>   6.3231  0.7331 31.5015</r>
       <r>   6.3967  0.6980 31.5538</r>
       <r>   6.4703  0.7176 31.6111</r>
       <r>   6.5440  0.5598 31.6581</r>
       <r>   6.6176  0.4903 31.6956</r>
       <r>   6.6912  0.4820 31.7313</r>
       <r>   6.7648  0.4774 31.7666</r>
       <r>   6.8385  1.1509 31.8209</r>
       <r>   6.9121  1.5271 31.9249</r>
       <r>   6.9857  1.2754 32.0333</r>
       <r>   7.0593  1.0715 32.1197</r>
       <r>   7.1330  0.9775 32.1939</r>
       <r>   7.2066  0.9337 32.2642</r>
       <r>   7.2802  0.8041 32.3287</r>
       <r>   7.3538  0.7652 32.3866</r>
       <r>   7.4275  0.7173 32.4412</r>
       <r>   7.5011  0.6694 32.4922</r>
       <r>   7.5747  0.5394 32.5381</r>
       <r>   7.6483  0.4157 32.5858</r>
       <r>   7.7220  0.3996 32.6158</r>
       <r>   7.7956  0.3835 32.6447</r>
       <r>   7.8692  0.3674 32.6723</r>
       <r>   7.9428  0.3513 32.6988</r>
       <r>   8.0164  0.3352 32.7240</r>
       <r>   8.0901  0.3191 32.7481</r>
       <r>   8.1637  0.3031 32.7710</r>
       <r>   8.2373  0.2513 32.8049</r>
       <r>   8.3109  0.2390 32.8230</r>
       <r>   8.3846  0.2266 32.8401</r>
       <r>   8.4582  0.2143 32.8564</r>
       <r>   8.5318  0.2019 32.8717</r>
       <r>   8.6054  0.2219 32.8868</r>
       <r>   8.6791  0.1759 32.9063</r>
       <r>   8.7527  0.1645 32.9188</r>
       <r>   8.8263  0.1530 32.9305</r>
       <r>   8.8999  0.1416 32.9414</r>
       <r>   8.9736  0.1301 32.9514</r>
       <r>   9.0472  0.1187 32.9605</r>
       <r>   9.1208  0.1072 32.9689</r>
       <r>   9.1944  0.0958 32.9763</r>
       <r>   9.2681  0.0843 32.9830</r>
       <r>   9.3417  0.0000 33.0000</r>
       <r>   9.4153  0.0000 33.0000</r>
       <r>   9.4889  0.0000 33.0000</r>
       <r>   9.5626  0.0000 33.0000</r>
       <r>   9.6362  0.0000 33.0000</r>
       <r>   9.7098  0.0000 33.0000</r>
       <r>   9.7834  0.0000 33.0000</r>
       <r>   9.8570  0.0000 33.0000</r>
       <r>   9.9307  0.0000 33.0000</r>
       <r>  10.0043  0.0000 33.0000</r>
       <r>  10.0779  0.0000 33.0000</r>
       <r>  10.1515  0.0000 33.0000</r>
       <r>  10.2252  0.0000 33.0000</r>
       <r>  10.2988  0.0000 33.0000</r>
       <r>  10.3724  0.0000 33.0000</r>
       <r>  10.4460  0.0000 33.0000</r>
       <r>  10.5197  0.0000 33.0000</r>
       <r>  10.5933  0.0000 33.0000</r>
       <r>  10.6669  0.0000 33.0000</r>
       <r>  10.7405  0.0000 33.0000</r>
       <r>  10.8142  0.0000 33.0000</r>
       <r>  10.8878  0.0000 33.0000</r>
       <r>  10.9614  0.0000 33.0000</r>
       <r>  11.0350  0.0000 33.0000</r>
       <r>  11.1087  0.0000 33.0000</r>
       <r>  11.1823  0.0000 33.0000</r>
       <r>  11.2559  0.0000 33.0000</r>
       <r>  11.3295  0.0000 33.0000</r>
       <r>  11.4031  0.0000 33.0000</r>
       <r>  11.4768  0.0000 33.0000</r>
       <r>  11.5504  0.0000 33.0000</r>
      </set>
      <set comment="spin 2">
       <r> -10.5368  0.0000  0.0000</r>
       <r> -10.4632  0.0000  0.0000</r>
       <r> -10.3895  0.0000  0.0000</r>
       <r> -10.3159  0.0000  0.0000</r>
       <r> -10.2423  0.0000  0.0000</r>
       <r> -10.1687  0.0000  0.0000</r>
       <r> -10.0950  0.0000  0.0000</r>
       <r> -10.0214  0.0000  0.0000</r>
       <r>  -9.9478  0.0000  0.0000</r>
       <r>  -9.8742  0.0000  0.0000</r>
       <r>  -9.8005  0.0000  0.0000</r>
       <r>  -9.7269  0.0000  0.0000</r>
       <r>  -9.6533  0.0000  0.0000</r>
       <r>  -9.5797  0.0000  0.0000</r>
       <r>  -9.5060  0.0000  0.0000</r>
       <r>  -9.4324  0.0000  0.0000</r>
       <r>  -9.3588  0.0000  0.0000</r>
       <r>  -9.2852  0.0000  0.0000</r>
       <r>  -9.2115  0.0000  0.0000</r>
       <r>  -9.1379  0.0000  0.0000</r>
       <r>  -9.0643  0.0000  0.0000</r>
       <r>  -8.9907  0.0000  0.0000</r>
       <r>  -8.9171  0.0000  0.0000</r>
       <r>  -8.8434  0.0000  0.0000</r>
       <r>  -8.7698  0.0000  0.0000</r>
       <r>  -8.6962  0.0000  0.0000</r>
       <r>  -8.6226  0.0000  0.0000</r>
       <r>  -8.5489  0.0000  0.0000</r>
       <r>  -8.4753  0.0311  0.0010</r>
       <r>  -8.4017  0.0684  0.0046</r>
       <r>  -8.3281  0.1057  0.0110</r>
       <r>  -8.2544  0.1430  0.0202</r>
       <r>  -8.1808  0.1527  0.0315</r>
       <r>  -8.1072  0.1411  0.0423</r>
       <r>  -8.0336  0.1294  0.0523</r>
       <r>  -7.9599  0.1177  0.0614</r>
       <r>  -7.8863  0.1126  0.0697</r>
       <r>  -7.8127  0.1174  0.0782</r>
       <r>  -7.7391  0.1222  0.0870</r>
       <r>  -7.6654  0.1271  0.0962</r>
       <r>  -7.5918  0.1319  0.1057</r>
       <r>  -7.5182  0.1367  0.1156</r>
       <r>  -7.4446  0.1416  0.1258</r>
       <r>  -7.3710  0.1464  0.1364</r>
       <r>  -7.2973  0.1780  0.1482</r>
       <r>  -7.2237  0.2154  0.1626</r>
       <r>  -7.1501  0.2529  0.1799</r>
       <r>  -7.0765  0.2903  0.1999</r>
       <r>  -7.0028  0.2952  0.2218</r>
       <r>  -6.9292  0.2850  0.2431</r>
       <r>  -6.8556  0.2749  0.2638</r>
       <r>  -6.7820  0.2647  0.2836</r>
       <r>  -6.7083  0.2679  0.3031</r>
       <r>  -6.6347  0.2755  0.3231</r>
       <r>  -6.5611  0.2831  0.3437</r>
       <r>  -6.4875  0.2907  0.3648</r>
       <r>  -6.4138  0.2983  0.3865</r>
       <r>  -6.3402  0.3060  0.4087</r>
       <r>  -6.2666  0.3136  0.4315</r>
       <r>  -6.1930  0.3174  0.4548</r>
       <r>  -6.1193  0.3193  0.4782</r>
       <r>  -6.0457  0.3213  0.5018</r>
       <r>  -5.9721  0.3231  0.5255</r>
       <r>  -5.8985  0.3309  0.5496</r>
       <r>  -5.8248  0.3376  0.5743</r>
       <r>  -5.7512  0.3444  0.5994</r>
       <r>  -5.6776  0.3508  0.6250</r>
       <r>  -5.6040  0.3856  0.6516</r>
       <r>  -5.5304  0.4452  0.6822</r>
       <r>  -5.4567  0.5047  0.7171</r>
       <r>  -5.3831  0.5643  0.7565</r>
       <r>  -5.3095  0.5624  0.7980</r>
       <r>  -5.2359  0.5584  0.8393</r>
       <r>  -5.1622  0.5560  0.8803</r>
       <r>  -5.0886  0.5895  0.9218</r>
       <r>  -5.0150  0.6241  0.9664</r>
       <r>  -4.9414  0.6587  1.0137</r>
       <r>  -4.8677  0.6886  1.0633</r>
       <r>  -4.7941  0.7150  1.1150</r>
       <r>  -4.7205  0.7428  1.1686</r>
       <r>  -4.6469  0.7779  1.2246</r>
       <r>  -4.5732  1.0528  1.2947</r>
       <r>  -4.4996  1.0594  1.3724</r>
       <r>  -4.4260  0.9503  1.4506</r>
       <r>  -4.3524  1.1950  1.5330</r>
       <r>  -4.2787  1.2841  1.6235</r>
       <r>  -4.2051  1.3886  1.7219</r>
       <r>  -4.1315  1.5678  1.8254</r>
       <r>  -4.0579  2.3892  1.9629</r>
       <r>  -3.9843  1.8289  2.2135</r>
       <r>  -3.9106  1.8994  2.3628</r>
       <r>  -3.8370  1.7327  2.4959</r>
       <r>  -3.7634  1.8484  2.6273</r>
       <r>  -3.6898  4.3504  2.8317</r>
       <r>  -3.6161  1.1833  2.9236</r>
       <r>  -3.5425  2.3074  3.0467</r>
       <r>  -3.4689  5.8075  3.3170</r>
       <r>  -3.3953  3.3436  3.6519</r>
       <r>  -3.3216  4.8439  3.9147</r>
       <r>  -3.2480  3.8720  4.2327</r>
       <r>  -3.1744  4.9409  4.6740</r>
       <r>  -3.1008  3.4070  4.9923</r>
       <r>  -3.0271  4.9016  5.2827</r>
       <r>  -2.9535  3.0074  5.6250</r>
       <r>  -2.8799  3.2568  5.8610</r>
       <r>  -2.8063  3.8717  6.1234</r>
       <r>  -2.7326  4.2240  6.4061</r>
       <r>  -2.6590  3.3312  6.6499</r>
       <r>  -2.5854  3.4846  6.9133</r>
       <r>  -2.5118  3.8591  7.1599</r>
       <r>  -2.4381  4.0223  7.4708</r>
       <r>  -2.3645  5.6153  7.7889</r>
       <r>  -2.2909  5.4538  8.2178</r>
       <r>  -2.2173  5.2529  8.6165</r>
       <r>  -2.1437  4.5647  8.9700</r>
       <r>  -2.0700  6.5319  9.3806</r>
       <r>  -1.9964  4.4451  9.7830</r>
       <r>  -1.9228  3.9001 10.1184</r>
       <r>  -1.8492  5.4445 10.4354</r>
       <r>  -1.7755  5.5955 10.8358</r>
       <r>  -1.7019  9.4673 11.4092</r>
       <r>  -1.6283  7.5159 12.0358</r>
       <r>  -1.5547  6.1293 12.6446</r>
       <r>  -1.4810  5.6550 13.1006</r>
       <r>  -1.4074  4.7702 13.4649</r>
       <r>  -1.3338  7.4378 13.8191</r>
       <r>  -1.2602  6.1055 14.3830</r>
       <r>  -1.1865  7.1712 14.9976</r>
       <r>  -1.1129  7.0142 15.5371</r>
       <r>  -1.0393  6.9837 16.0587</r>
       <r>  -0.9657  6.6192 16.5645</r>
       <r>  -0.8920  7.0554 17.1645</r>
       <r>  -0.8184  6.4850 17.6553</r>
       <r>  -0.7448  6.2195 18.0969</r>
       <r>  -0.6712  7.9197 18.5888</r>
       <r>  -0.5976  7.3207 19.0936</r>
       <r>  -0.5239  8.1209 19.6912</r>
       <r>  -0.4503  8.4598 20.3484</r>
       <r>  -0.3767  7.0866 20.9169</r>
       <r>  -0.3031  9.1366 21.5707</r>
       <r>  -0.2294  8.6408 22.2527</r>
       <r>  -0.1558  6.7393 22.8215</r>
       <r>  -0.0822  6.1484 23.3153</r>
       <r>  -0.0086 11.5700 23.9741</r>
       <r>   0.0651  6.9925 24.7395</r>
       <r>   0.1387  5.9559 25.3448</r>
       <r>   0.2123  5.2637 25.8450</r>
       <r>   0.2859  2.6729 26.0922</r>
       <r>   0.3596  2.3119 26.2757</r>
       <r>   0.4332  1.8397 26.4381</r>
       <r>   0.5068  1.4229 26.5636</r>
       <r>   0.5804  1.3381 26.6653</r>
       <r>   0.6541  1.2470 26.7605</r>
       <r>   0.7277  1.1578 26.8490</r>
       <r>   0.8013  1.2939 26.9373</r>
       <r>   0.8749  1.1678 27.0275</r>
       <r>   0.9486  1.1172 27.1116</r>
       <r>   1.0222  1.0666 27.1920</r>
       <r>   1.0958  0.9400 27.2649</r>
       <r>   1.1694  0.9111 27.3331</r>
       <r>   1.2430  0.8791 27.3989</r>
       <r>   1.3167  0.8015 27.4622</r>
       <r>   1.3903  0.7945 27.5206</r>
       <r>   1.4639  0.7648 27.5780</r>
       <r>   1.5375  0.6824 27.6317</r>
       <r>   1.6112  0.6895 27.6817</r>
       <r>   1.6848  0.7480 27.7350</r>
       <r>   1.7584  0.8798 27.7943</r>
       <r>   1.8320  0.8563 27.8582</r>
       <r>   1.9057  0.8340 27.9204</r>
       <r>   1.9793  0.8184 27.9812</r>
       <r>   2.0529  0.8016 28.0409</r>
       <r>   2.1265  0.7725 28.0989</r>
       <r>   2.2002  0.7449 28.1547</r>
       <r>   2.2738  0.7173 28.2085</r>
       <r>   2.3474  0.8692 28.2644</r>
       <r>   2.4210  0.8868 28.3291</r>
       <r>   2.4947  0.9043 28.3950</r>
       <r>   2.5683  0.8747 28.4711</r>
       <r>   2.6419  0.7360 28.5268</r>
       <r>   2.7155  0.7427 28.5812</r>
       <r>   2.7892  0.7875 28.6375</r>
       <r>   2.8628  0.7841 28.6954</r>
       <r>   2.9364  0.7827 28.7530</r>
       <r>   3.0100  0.7792 28.8105</r>
       <r>   3.0836  0.7757 28.8677</r>
       <r>   3.1573  0.7645 28.9247</r>
       <r>   3.2309  0.7240 28.9792</r>
       <r>   3.3045  0.7221 29.0324</r>
       <r>   3.3781  0.7238 29.0857</r>
       <r>   3.4518  0.7255 29.1390</r>
       <r>   3.5254  0.7272 29.1925</r>
       <r>   3.5990  0.7289 29.2461</r>
       <r>   3.6726  0.7166 29.2992</r>
       <r>   3.7463  0.6394 29.3615</r>
       <r>   3.8199  0.6160 29.4077</r>
       <r>   3.8935  0.7179 29.4614</r>
       <r>   3.9671  0.6739 29.5126</r>
       <r>   4.0408  0.6299 29.5606</r>
       <r>   4.1144  0.5945 29.6055</r>
       <r>   4.1880  0.4322 29.6590</r>
       <r>   4.2616  0.4292 29.6907</r>
       <r>   4.3353  0.4262 29.7222</r>
       <r>   4.4089  0.5726 29.7567</r>
       <r>   4.4825  0.4966 29.7960</r>
       <r>   4.5561  0.4206 29.8298</r>
       <r>   4.6297  0.4113 29.8602</r>
       <r>   4.7034  0.4055 29.8902</r>
       <r>   4.7770  0.6716 29.9257</r>
       <r>   4.8506  0.7489 29.9780</r>
       <r>   4.9242  1.0313 30.0412</r>
       <r>   4.9979  0.9790 30.1156</r>
       <r>   5.0715  1.0992 30.1919</r>
       <r>   5.1451  1.1414 30.2744</r>
       <r>   5.2187  1.0274 30.3513</r>
       <r>   5.2924  1.0262 30.4269</r>
       <r>   5.3660  1.0323 30.5025</r>
       <r>   5.4396  1.0489 30.5791</r>
       <r>   5.5132  1.0238 30.6664</r>
       <r>   5.5869  0.9974 30.7411</r>
       <r>   5.6605  0.9925 30.8139</r>
       <r>   5.7341  1.0131 30.8878</r>
       <r>   5.8077  1.0337 30.9631</r>
       <r>   5.8814  1.0698 31.0405</r>
       <r>   5.9550  1.0623 31.1192</r>
       <r>   6.0286  0.9864 31.1948</r>
       <r>   6.1022  0.9002 31.2643</r>
       <r>   6.1759  0.8127 31.3273</r>
       <r>   6.2495  0.7209 31.3956</r>
       <r>   6.3231  0.6928 31.4477</r>
       <r>   6.3967  0.7079 31.4996</r>
       <r>   6.4703  0.6925 31.5512</r>
       <r>   6.5440  0.6771 31.6016</r>
       <r>   6.6176  0.7444 31.6573</r>
       <r>   6.6912  0.5149 31.7037</r>
       <r>   6.7648  0.4807 31.7394</r>
       <r>   6.8385  0.4755 31.7746</r>
       <r>   6.9121  0.4702 31.8094</r>
       <r>   6.9857  0.6586 31.8521</r>
       <r>   7.0593  1.1564 31.9103</r>
       <r>   7.1330  1.5450 32.0115</r>
       <r>   7.2066  1.4211 32.1260</r>
       <r>   7.2802  1.1217 32.2235</r>
       <r>   7.3538  0.9267 32.2969</r>
       <r>   7.4275  0.7989 32.3604</r>
       <r>   7.5011  0.7056 32.4153</r>
       <r>   7.5747  0.6344 32.4646</r>
       <r>   7.6483  0.6073 32.5103</r>
       <r>   7.7220  0.5223 32.5536</r>
       <r>   7.7956  0.4332 32.5995</r>
       <r>   7.8692  0.4141 32.6307</r>
       <r>   7.9428  0.3949 32.6605</r>
       <r>   8.0164  0.3757 32.6888</r>
       <r>   8.0901  0.3566 32.7158</r>
       <r>   8.1637  0.3374 32.7414</r>
       <r>   8.2373  0.3182 32.7655</r>
       <r>   8.3109  0.2991 32.7882</r>
       <r>   8.3846  0.2437 32.8213</r>
       <r>   8.4582  0.2286 32.8387</r>
       <r>   8.5318  0.2134 32.8550</r>
       <r>   8.6054  0.1729 32.8695</r>
       <r>   8.6791  0.1826 32.8815</r>
       <r>   8.7527  0.2467 32.8973</r>
       <r>   8.8263  0.1458 32.9116</r>
       <r>   8.8999  0.1375 32.9220</r>
       <r>   8.9736  0.1292 32.9318</r>
       <r>   9.0472  0.1209 32.9410</r>
       <r>   9.1208  0.1127 32.9496</r>
       <r>   9.1944  0.1044 32.9576</r>
       <r>   9.2681  0.0961 32.9650</r>
       <r>   9.3417  0.0878 32.9718</r>
       <r>   9.4153  0.0795 32.9779</r>
       <r>   9.4889  0.0712 32.9835</r>
       <r>   9.5626  0.0000 33.0000</r>
       <r>   9.6362  0.0000 33.0000</r>
       <r>   9.7098  0.0000 33.0000</r>
       <r>   9.7834  0.0000 33.0000</r>
       <r>   9.8570  0.0000 33.0000</r>
       <r>   9.9307  0.0000 33.0000</r>
       <r>  10.0043  0.0000 33.0000</r>
       <r>  10.0779  0.0000 33.0000</r>
       <r>  10.1515  0.0000 33.0000</r>
       <r>  10.2252  0.0000 33.0000</r>
       <r>  10.2988  0.0000 33.0000</r>
       <r>  10.3724  0.0000 33.0000</r>
       <r>  10.4460  0.0000 33.0000</r>
       <r>  10.5197  0.0000 33.0000</r>
       <r>  10.5933  0.0000 33.0000</r>
       <r>  10.6669  0.0000 33.0000</r>
       <r>  10.7405  0.0000 33.0000</r>
       <r>  10.8142  0.0000 33.0000</r>
       <r>  10.8878  0.0000 33.0000</r>
       <r>  10.9614  0.0000 33.0000</r>
       <r>  11.0350  0.0000 33.0000</r>
       <r>  11.1087  0.0000 33.0000</r>
[...]
        <r>  0.0000 0.0000 0.0000 0.0000 0.0006 0.0202 0.0003 0.0992 0.0075</r>
        <r>  0.0000 0.0000 0.0002 0.0000 0.0001 0.0350 0.0002 0.1061 0.0000</r>
        <r>  0.0000 0.0001 0.0000 0.0000 0.0018 0.0188 0.0004 0.1038 0.0055</r>
        <r>  0.0003 0.0001 0.0004 0.0001 0.1982 0.0072 0.0365 0.0474 0.0000</r>
       </set>
       <set comment="band 26">
        <r>  0.0155 0.0365 0.0007 0.0015 0.0271 0.0407 0.0080 0.0006 0.0124</r>
        <r>  0.0273 0.0603 0.0004 0.0008 0.0401 0.0125 0.0084 0.0000 0.0265</r>
        <r>  0.0309 0.0756 0.0000 0.0026 0.0381 0.0000 0.0081 0.0000 0.0361</r>
        <r>  0.0280 0.0623 0.0004 0.0007 0.0391 0.0097 0.0080 0.0000 0.0285</r>
        <r>  0.0176 0.0420 0.0006 0.0016 0.0297 0.0450 0.0069 0.0008 0.0137</r>
       </set>
       <set comment="band 27">
        <r>  0.0416 0.0815 0.0004 0.0028 0.0151 0.0097 0.0042 0.0001 0.0350</r>
        <r>  0.0282 0.0572 0.0034 0.0019 0.0082 0.0332 0.0017 0.0003 0.0322</r>
        <r>  0.0000 0.0000 0.0098 0.0000 0.0000 0.0999 0.0000 0.0005 0.0000</r>
        <r>  0.0264 0.0552 0.0033 0.0016 0.0079 0.0351 0.0012 0.0004 0.0303</r>
        <r>  0.0395 0.0789 0.0003 0.0026 0.0142 0.0091 0.0036 0.0002 0.0342</r>
       </set>
       <set comment="band 28">
        <r>  0.0078 0.0005 0.0011 0.0416 0.0214 0.0001 0.0027 0.0170 0.0029</r>
        <r>  0.0162 0.0024 0.0007 0.0994 0.0409 0.0002 0.0053 0.0065 0.0112</r>
        <r>  0.0198 0.0042 0.0000 0.1325 0.0543 0.0000 0.0073 0.0000 0.0170</r>
        <r>  0.0169 0.0027 0.0006 0.1061 0.0422 0.0002 0.0054 0.0053 0.0123</r>
        <r>  0.0090 0.0006 0.0011 0.0500 0.0250 0.0001 0.0029 0.0196 0.0034</r>
       </set>
       <set comment="band 29">
        <r>  0.0394 0.0835 0.0016 0.0105 0.0020 0.0038 0.0001 0.0001 0.0356</r>
        <r>  0.0002 0.0009 0.0280 0.0005 0.0000 0.0842 0.0000 0.0017 0.0008</r>
        <r>  0.0395 0.0825 0.0000 0.0076 0.0025 0.0001 0.0000 0.0000 0.0489</r>
        <r>  0.0000 0.0001 0.0271 0.0002 0.0000 0.0844 0.0000 0.0016 0.0003</r>
        <r>  0.0364 0.0758 0.0015 0.0089 0.0020 0.0037 0.0001 0.0000 0.0339</r>
       </set>
       <set comment="band 30">
        <r>  0.0097 0.0106 0.0033 0.1025 0.0239 0.0014 0.0044 0.0077 0.0174</r>
        <r>  0.0084 0.0110 0.0039 0.0903 0.0182 0.0010 0.0037 0.0138 0.0227</r>
        <r>  0.0000 0.0001 0.0168 0.0001 0.0000 0.0045 0.0000 0.0519 0.0001</r>
        <r>  0.0077 0.0100 0.0052 0.0855 0.0170 0.0020 0.0031 0.0160 0.0215</r>
        <r>  0.0085 0.0117 0.0032 0.1034 0.0231 0.0017 0.0040 0.0073 0.0188</r>
       </set>
       <set comment="band 31">
        <r>  0.0584 0.0280 0.0252 0.0159 0.0117 0.0303 0.0001 0.0000 0.0009</r>
        <r>  0.0435 0.0464 0.0023 0.0007 0.0049 0.0095 0.0003 0.0049 0.0153</r>
        <r>  0.0000 0.0001 0.0321 0.0002 0.0000 0.0519 0.0000 0.0043 0.0001</r>
        <r>  0.0388 0.0400 0.0056 0.0008 0.0044 0.0131 0.0002 0.0025 0.0146</r>
        <r>  0.0476 0.0272 0.0240 0.0085 0.0082 0.0294 0.0000 0.0000 0.0020</r>
       </set>
       <set comment="band 32">
        <r>  0.0508 0.0000 0.0058 0.0995 0.0213 0.0027 0.0022 0.0019 0.0086</r>
        <r>  0.0000 0.0011 0.0137 0.0007 0.0000 0.0018 0.0001 0.0550 0.0010</r>
        <r>  0.0373 0.0016 0.0001 0.0908 0.0160 0.0002 0.0029 0.0001 0.0146</r>
        <r>  0.0010 0.0030 0.0113 0.0001 0.0001 0.0031 0.0002 0.0583 0.0019</r>
        <r>  0.0576 0.0003 0.0095 0.0978 0.0221 0.0052 0.0021 0.0019 0.0074</r>
       </set>
       <set comment="band 33">
        <r>  0.0003 0.0017 0.0589 0.0078 0.0006 0.0377 0.0000 0.0010 0.0002</r>
        <r>  0.0166 0.0268 0.0097 0.0000 0.0015 0.0239 0.0019 0.0141 0.0073</r>
        <r>  0.0617 0.0452 0.0002 0.0170 0.0096 0.0000 0.0035 0.0001 0.0051</r>
        <r>  0.0118 0.0296 0.0087 0.0006 0.0007 0.0195 0.0024 0.0111 0.0104</r>
        <r>  0.0000 0.0010 0.0630 0.0035 0.0002 0.0363 0.0000 0.0002 0.0000</r>
       </set>
      </set>
      <set comment="kpoint 15">
       <set comment="band 1">
        <r>  0.0052 0.0002 0.0035 0.0000 0.0000 0.0001 0.0150 0.0000 0.0059</r>
        <r>  0.0048 0.0034 0.0007 0.0000 0.0000 0.0003 0.0110 0.0000 0.1983</r>
        <r>  0.0312 0.0025 0.0003 0.0000 0.0000 0.0000 0.0966 0.0000 0.0726</r>
        <r>  0.0061 0.0052 0.0004 0.0000 0.0000 0.0002 0.0133 0.0000 0.3313</r>
        <r>  0.0110 0.0004 0.0074 0.0000 0.0000 0.0002 0.0306 0.0000 0.0104</r>
       </set>
       <set comment="band 2">
        <r>  0.0005 0.0005 0.0005 0.0000 0.0000 0.0008 0.0027 0.0000 0.0324</r>
        <r>  0.0189 0.0000 0.0038 0.0000 0.0000 0.0002 0.0727 0.0000 0.0335</r>
        <r>  0.0033 0.0041 0.0001 0.0000 0.0000 0.0000 0.0196 0.0000 0.4353</r>
        <r>  0.0226 0.0001 0.0025 0.0000 0.0000 0.0001 0.0882 0.0000 0.0624</r>
        <r>  0.0014 0.0008 0.0012 0.0000 0.0000 0.0010 0.0062 0.0000 0.0552</r>
       </set>
       <set comment="band 3">
        <r>  0.0127 0.0004 0.0081 0.0000 0.0000 0.0012 0.0423 0.0000 0.0009</r>
        <r>  0.0003 0.0038 0.0001 0.0000 0.0000 0.0042 0.0000 0.0000 0.4360</r>
        <r>  0.0007 0.0000 0.0229 0.0000 0.0000 0.0030 0.0025 0.0000 0.0000</r>
        <r>  0.0003 0.0024 0.0001 0.0000 0.0000 0.0079 0.0001 0.0000 0.2748</r>
        <r>  0.0105 0.0006 0.0065 0.0000 0.0000 0.0020 0.0323 0.0000 0.0014</r>
       </set>
       <set comment="band 4">
        <r>  0.0000 0.0022 0.0000 0.0000 0.0000 0.0238 0.0004 0.0000 0.0028</r>
        <r>  0.0010 0.0038 0.0006 0.0000 0.0000 0.1832 0.0008 0.0000 0.0069</r>
        <r>  0.0000 0.0001 0.0040 0.0000 0.0000 0.3494 0.0000 0.0000 0.0001</r>
        <r>  0.0007 0.0018 0.0007 0.0000 0.0000 0.2839 0.0010 0.0000 0.0045</r>
        <r>  0.0002 0.0053 0.0001 0.0000 0.0000 0.0539 0.0003 0.0000 0.0048</r>
       </set>
       <set comment="band 5">
        <r>  0.0000 0.0000 0.0000 0.0030 0.0003 0.0000 0.0000 0.0282 0.0000</r>
        <r>  0.0000 0.0000 0.0000 0.0025 0.0003 0.0000 0.0000 0.1917 0.0000</r>
        <r>  0.0000 0.0000 0.0000 0.0001 0.0000 0.0000 0.0000 0.3467 0.0000</r>
        <r>  0.0000 0.0000 0.0000 0.0010 0.0001 0.0000 0.0000 0.2969 0.0000</r>
        <r>  0.0000 0.0000 0.0000 0.0067 0.0007 0.0000 0.0000 0.0618 0.0000</r>
       </set>
       <set comment="band 6">
        <r>  0.0000 0.0025 0.0000 0.0000 0.0000 0.0034 0.0004 0.0000 0.2170</r>
        <r>  0.0126 0.0002 0.0023 0.0000 0.0000 0.0009 0.0599 0.0000 0.0031</r>
        <r>  0.0000 0.0003 0.0002 0.0000 0.0000 0.0004 0.0000 0.0000 0.0155</r>
        <r>  0.0145 0.0006 0.0144 0.0000 0.0000 0.0067 0.0641 0.0000 0.0023</r>
        <r>  0.0001 0.0059 0.0000 0.0000 0.0000 0.0102 0.0004 0.0000 0.4352</r>
       </set>
       <set comment="band 7">
        <r>  0.0014 0.0125 0.0006 0.0000 0.0000 0.0979 0.0003 0.0000 0.1380</r>
        <r>  0.0015 0.0010 0.0125 0.0000 0.0000 0.2365 0.0051 0.0000 0.0000</r>
        <r>  0.0021 0.0189 0.0000 0.0000 0.0000 0.0056 0.0002 0.0000 0.0506</r>
        <r>  0.0004 0.0035 0.0071 0.0000 0.0000 0.1708 0.0000 0.0000 0.0000</r>
        <r>  0.0012 0.0097 0.0005 0.0000 0.0000 0.0965 0.0003 0.0000 0.0361</r>
       </set>
       <set comment="band 8">
        <r>  0.0000 0.0000 0.0000 0.0089 0.0012 0.0000 0.0000 0.1289 0.0000</r>
        <r>  0.0000 0.0000 0.0000 0.0009 0.0001 0.0000 0.0000 0.3355 0.0000</r>
        <r>  0.0000 0.0000 0.0000 0.0215 0.0033 0.0000 0.0000 0.0105 0.0000</r>
        <r>  0.0000 0.0000 0.0000 0.0057 0.0009 0.0000 0.0000 0.2567 0.0000</r>
        <r>  0.0000 0.0000 0.0000 0.0105 0.0014 0.0000 0.0000 0.1514 0.0000</r>
       </set>
       <set comment="band 9">
        <r>  0.0002 0.0000 0.0002 0.0000 0.0000 0.0282 0.0005 0.0000 0.3119</r>
        <r>  0.0016 0.0001 0.0098 0.0000 0.0000 0.1028 0.0112 0.0000 0.0003</r>
        <r>  0.0006 0.0039 0.0000 0.0000 0.0000 0.0047 0.0001 0.0000 0.1175</r>
        <r>  0.0000 0.0018 0.0074 0.0000 0.0000 0.0854 0.0019 0.0000 0.0000</r>
        <r>  0.0003 0.0008 0.0002 0.0000 0.0000 0.0445 0.0002 0.0000 0.1596</r>
       </set>
       <set comment="band 10">
        <r>  0.0005 0.0044 0.0005 0.0000 0.0000 0.2509 0.0001 0.0000 0.0142</r>
        <r>  0.0028 0.0343 0.0001 0.0000 0.0000 0.0357 0.0000 0.0000 0.0029</r>
        <r>  0.0000 0.0003 0.0001 0.0000 0.0000 0.2915 0.0000 0.0000 0.0000</r>
        <r>  0.0031 0.0382 0.0001 0.0000 0.0000 0.0093 0.0000 0.0000 0.0035</r>
        <r>  0.0003 0.0036 0.0003 0.0000 0.0000 0.2184 0.0000 0.0000 0.0109</r>
       </set>
       <set comment="band 11">
        <r>  0.0000 0.0000 0.0000 0.0054 0.0012 0.0000 0.0000 0.2589 0.0000</r>
        <r>  0.0000 0.0000 0.0000 0.0364 0.0100 0.0000 0.0000 0.0342 0.0000</r>
        <r>  0.0000 0.0000 0.0000 0.0003 0.0001 0.0000 0.0000 0.2965 0.0000</r>
        <r>  0.0000 0.0000 0.0000 0.0402 0.0117 0.0000 0.0000 0.0082 0.0000</r>
        <r>  0.0000 0.0000 0.0000 0.0043 0.0010 0.0000 0.0000 0.2210 0.0000</r>
       </set>
       <set comment="band 12">
        <r>  0.0006 0.0003 0.0000 0.0000 0.0000 0.2979 0.0051 0.0000 0.0018</r>
        <r>  0.0021 0.0234 0.0000 0.0000 0.0000 0.1058 0.0001 0.0000 0.0054</r>
        <r>  0.0063 0.0403 0.0000 0.0000 0.0000 0.0001 0.0141 0.0000 0.0061</r>
        <r>  0.0019 0.0242 0.0000 0.0000 0.0000 0.1100 0.0001 0.0000 0.0047</r>
        <r>  0.0006 0.0005 0.0000 0.0000 0.0000 0.2687 0.0040 0.0000 0.0010</r>
       </set>
       <set comment="band 13">
        <r>  0.0000 0.0000 0.0000 0.0003 0.0001 0.0000 0.0000 0.2794 0.0000</r>
        <r>  0.0000 0.0000 0.0000 0.0261 0.0221 0.0000 0.0000 0.1064 0.0000</r>
        <r>  0.0000 0.0000 0.0000 0.0469 0.0375 0.0000 0.0000 0.0001 0.0000</r>
        <r>  0.0000 0.0000 0.0000 0.0265 0.0249 0.0000 0.0000 0.1101 0.0000</r>
        <r>  0.0000 0.0000 0.0000 0.0004 0.0002 0.0000 0.0000 0.2481 0.0000</r>
       </set>
       <set comment="band 14">
        <r>  0.0042 0.0003 0.0002 0.0000 0.0000 0.0048 0.1856 0.0000 0.0003</r>
        <r>  0.0001 0.0007 0.0000 0.0000 0.0000 0.0061 0.0012 0.0000 0.0090</r>
        <r>  0.0029 0.0048 0.0000 0.0000 0.0000 0.0000 0.5383 0.0000 0.0010</r>
        <r>  0.0000 0.0008 0.0000 0.0000 0.0000 0.0067 0.0002 0.0000 0.0062</r>
        <r>  0.0038 0.0004 0.0001 0.0000 0.0000 0.0064 0.1859 0.0000 0.0000</r>
       </set>
       <set comment="band 15">
        <r>  0.0000 0.0000 0.0000 0.0000 0.0000 0.0062 0.0009 0.0000 0.0659</r>
        <r>  0.0018 0.0011 0.0011 0.0000 0.0000 0.0023 0.3960 0.0000 0.0001</r>
        <r>  0.0000 0.0000 0.0000 0.0000 0.0000 0.0001 0.0007 0.0000 0.0000</r>
        <r>  0.0014 0.0008 0.0015 0.0000 0.0000 0.0011 0.4159 0.0000 0.0003</r>
        <r>  0.0000 0.0000 0.0000 0.0000 0.0000 0.0029 0.0000 0.0000 0.0754</r>
       </set>
       <set comment="band 16">
        <r>  0.0051 0.0014 0.0003 0.0000 0.0000 0.0538 0.3209 0.0000 0.0002</r>
        <r>  0.0000 0.0005 0.0000 0.0000 0.0000 0.0498 0.0020 0.0000 0.0395</r>
        <r>  0.0000 0.0000 0.0025 0.0000 0.0000 0.0553 0.0004 0.0000 0.0002</r>
        <r>  0.0000 0.0002 0.0000 0.0000 0.0000 0.0515 0.0000 0.0000 0.0340</r>
        <r>  0.0043 0.0018 0.0004 0.0000 0.0000 0.0570 0.2847 0.0000 0.0000</r>
       </set>
       <set comment="band 17">
        <r>  0.0000 0.0000 0.0000 0.0000 0.0000 0.0000 0.0005 0.0000 0.0480</r>
        <r>  0.0000 0.0010 0.0002 0.0000 0.0000 0.0002 0.3811 0.0000 0.0014</r>
        <r>  0.0000 0.0000 0.0000 0.0000 0.0000 0.0010 0.0035 0.0000 0.1304</r>
        <r>  0.0000 0.0006 0.0001 0.0000 0.0000 0.0018 0.3417 0.0000 0.0054</r>
        <r>  0.0000 0.0001 0.0001 0.0000 0.0000 0.0016 0.0202 0.0000 0.0481</r>
       </set>
       <set comment="band 18">
        <r>  0.0000 0.0000 0.0000 0.0116 0.0413 0.0000 0.0000 0.1555 0.0000</r>
        <r>  0.0000 0.0000 0.0000 0.0020 0.0263 0.0000 0.0000 0.1465 0.0000</r>
        <r>  0.0000 0.0000 0.0000 0.0000 0.0000 0.0000 0.0000 0.1439 0.0000</r>
        <r>  0.0000 0.0000 0.0000 0.0018 0.0371 0.0000 0.0000 0.1459 0.0000</r>
        <r>  0.0000 0.0000 0.0000 0.0152 0.0633 0.0000 0.0000 0.1735 0.0000</r>
       </set>
       <set comment="band 19">
        <r>  0.0000 0.0092 0.0002 0.0000 0.0000 0.1134 0.1138 0.0000 0.0003</r>
        <r>  0.0001 0.0011 0.0000 0.0000 0.0000 0.1398 0.0000 0.0000 0.0066</r>
        <r>  0.0000 0.0000 0.0001 0.0000 0.0000 0.1520 0.0008 0.0000 0.0015</r>
        <r>  0.0001 0.0012 0.0001 0.0000 0.0000 0.1310 0.0181 0.0000 0.0126</r>
        <r>  0.0000 0.0108 0.0004 0.0000 0.0000 0.1128 0.1428 0.0000 0.0011</r>
       </set>
       <set comment="band 20">
        <r>  0.0008 0.0003 0.0011 0.0000 0.0000 0.0000 0.2556 0.0000 0.0008</r>
        <r>  0.0000 0.0000 0.0000 0.0000 0.0000 0.0005 0.0097 0.0000 0.0922</r>
        <r>  0.0000 0.0004 0.0000 0.0000 0.0000 0.0009 0.2725 0.0000 0.0022</r>
        <r>  0.0000 0.0000 0.0000 0.0000 0.0000 0.0015 0.0081 0.0000 0.0931</r>
        <r>  0.0007 0.0000 0.0013 0.0000 0.0000 0.0027 0.2385 0.0000 0.0008</r>
       </set>
       <set comment="band 21">
        <r>  0.0000 0.0000 0.0000 0.0051 0.0338 0.0000 0.0000 0.0430 0.0000</r>
        <r>  0.0000 0.0000 0.0000 0.0035 0.1834 0.0000 0.0000 0.0225 0.0000</r>
        <r>  0.0000 0.0000 0.0000 0.0020 0.0799 0.0000 0.0000 0.0061 0.0000</r>
        <r>  0.0000 0.0000 0.0000 0.0039 0.5301 0.0000 0.0000 0.0022 0.0000</r>
        <r>  0.0000 0.0000 0.0000 0.0039 0.0346 0.0000 0.0000 0.0282 0.0000</r>
       </set>
       <set comment="band 22">
        <r>  0.0000 0.0000 0.0000 0.0001 0.0022 0.0000 0.0000 0.0009 0.0000</r>
        <r>  0.0000 0.0000 0.0000 0.0014 0.4616 0.0000 0.0000 0.0062 0.0000</r>
        <r>  0.0000 0.0000 0.0000 0.0008 0.0970 0.0000 0.0000 0.0513 0.0000</r>
        <r>  0.0000 0.0000 0.0000 0.0000 0.3252 0.0000 0.0000 0.0262 0.0000</r>
        <r>  0.0000 0.0000 0.0000 0.0012 0.0133 0.0000 0.0000 0.0051 0.0000</r>
       </set>
       <set comment="band 23">
        <r>  0.0000 0.0000 0.0000 0.0003 0.0031 0.0000 0.0000 0.0012 0.0000</r>
        <r>  0.0000 0.0000 0.0000 0.0001 0.2351 0.0000 0.0000 0.0134 0.0000</r>
        <r>  0.0000 0.0000 0.0000 0.0020 0.7136 0.0000 0.0000 0.0045 0.0000</r>
        <r>  0.0000 0.0000 0.0000 0.0000 0.0156 0.0000 0.0000 0.0016 0.0000</r>
        <r>  0.0000 0.0000 0.0000 0.0001 0.0023 0.0000 0.0000 0.0004 0.0000</r>
       </set>
       <set comment="band 24">
        <r>  0.0000 0.0000 0.0000 0.0022 0.1783 0.0000 0.0000 0.0001 0.0000</r>
        <r>  0.0000 0.0000 0.0000 0.0005 0.0245 0.0000 0.0000 0.0001 0.0000</r>
        <r>  0.0000 0.0000 0.0000 0.0005 0.0351 0.0000 0.0000 0.0053 0.0000</r>
        <r>  0.0000 0.0000 0.0000 0.0008 0.0248 0.0000 0.0000 0.0238 0.0000</r>
        <r>  0.0000 0.0000 0.0000 0.0035 0.6858 0.0000 0.0000 0.0062 0.0000</r>
       </set>
       <set comment="band 25">
        <r>  0.0000 0.0000 0.0000 0.0028 0.7092 0.0000 0.0000 0.0102 0.0000</r>
        <r>  0.0000 0.0000 0.0000 0.0002 0.0069 0.0000 0.0000 0.0378 0.0000</r>
        <r>  0.0000 0.0000 0.0000 0.0001 0.0022 0.0000 0.0000 0.0260 0.0000</r>
        <r>  0.0000 0.0000 0.0000 0.0000 0.0000 0.0000 0.0000 0.0223 0.0000</r>
        <r>  0.0000 0.0000 0.0000 0.0001 0.1674 0.0000 0.0000 0.0083 0.0000</r>
       </set>
       <set comment="band 26">
        <r>  0.0090 0.0629 0.0004 0.0000 0.0000 0.0380 0.0022 0.0000 0.0053</r>
        <r>  0.0164 0.1179 0.0002 0.0000 0.0000 0.0121 0.0026 0.0000 0.0134</r>
        <r>  0.0204 0.1475 0.0000 0.0000 0.0000 0.0000 0.0033 0.0000 0.0175</r>
        <r>  0.0170 0.1238 0.0002 0.0000 0.0000 0.0094 0.0025 0.0000 0.0144</r>
        <r>  0.0102 0.0740 0.0003 0.0000 0.0000 0.0428 0.0020 0.0000 0.0060</r>
       </set>
       <set comment="band 27">
        <r>  0.0000 0.0000 0.0000 0.0661 0.0099 0.0000 0.0000 0.0246 0.0000</r>
        <r>  0.0000 0.0000 0.0000 0.1414 0.0177 0.0000 0.0000 0.0085 0.0000</r>
        <r>  0.0000 0.0000 0.0000 0.1815 0.0232 0.0000 0.0000 0.0000 0.0000</r>
        <r>  0.0000 0.0000 0.0000 0.1509 0.0183 0.0000 0.0000 0.0066 0.0000</r>
        <r>  0.0000 0.0000 0.0000 0.0798 0.0116 0.0000 0.0000 0.0283 0.0000</r>
       </set>
       <set comment="band 28">
        <r>  0.0247 0.1311 0.0003 0.0000 0.0000 0.0094 0.0025 0.0000 0.0149</r>
        <r>  0.0184 0.0982 0.0016 0.0000 0.0000 0.0278 0.0013 0.0000 0.0150</r>
        <r>  0.0000 0.0001 0.0051 0.0000 0.0000 0.0880 0.0000 0.0000 0.0000</r>
        <r>  0.0168 0.0933 0.0015 0.0000 0.0000 0.0307 0.0010 0.0000 0.0140</r>
        <r>  0.0234 0.1274 0.0002 0.0000 0.0000 0.0087 0.0021 0.0000 0.0145</r>
       </set>
       <set comment="band 29">
        <r>  0.0000 0.0000 0.0000 0.1654 0.0114 0.0000 0.0000 0.0093 0.0000</r>
        <r>  0.0000 0.0000 0.0000 0.1309 0.0082 0.0000 0.0000 0.0225 0.0000</r>
        <r>  0.0000 0.0000 0.0000 0.0002 0.0000 0.0000 0.0000 0.0756 0.0000</r>
        <r>  0.0000 0.0000 0.0000 0.1225 0.0075 0.0000 0.0000 0.0258 0.0000</r>
        <r>  0.0000 0.0000 0.0000 0.1614 0.0110 0.0000 0.0000 0.0086 0.0000</r>
       </set>
       <set comment="band 30">
        <r>  0.0324 0.1271 0.0008 0.0000 0.0000 0.0034 0.0009 0.0000 0.0175</r>
        <r>  0.0004 0.0011 0.0168 0.0000 0.0000 0.0817 0.0000 0.0000 0.0004</r>
        <r>  0.0321 0.1276 0.0000 0.0000 0.0000 0.0001 0.0006 0.0000 0.0292</r>
        <r>  0.0002 0.0001 0.0161 0.0000 0.0000 0.0816 0.0001 0.0000 0.0002</r>
        <r>  0.0290 0.1140 0.0008 0.0000 0.0000 0.0033 0.0008 0.0000 0.0165</r>
       </set>
       <set comment="band 31">
        <r>  0.0000 0.0000 0.0000 0.1827 0.0071 0.0000 0.0000 0.0033 0.0000</r>
        <r>  0.0000 0.0000 0.0000 0.0016 0.0001 0.0000 0.0000 0.0895 0.0000</r>
        <r>  0.0000 0.0000 0.0000 0.1868 0.0070 0.0000 0.0000 0.0001 0.0000</r>
        <r>  0.0000 0.0000 0.0000 0.0002 0.0000 0.0000 0.0000 0.0886 0.0000</r>
        <r>  0.0000 0.0000 0.0000 0.1604 0.0062 0.0000 0.0000 0.0031 0.0000</r>
       </set>
       <set comment="band 32">
        <r>  0.0137 0.0594 0.0215 0.0000 0.0000 0.0278 0.0000 0.0000 0.0070</r>
        <r>  0.0169 0.0801 0.0051 0.0000 0.0000 0.0098 0.0002 0.0000 0.0326</r>
        <r>  0.0001 0.0002 0.0443 0.0000 0.0000 0.0560 0.0000 0.0000 0.0001</r>
        <r>  0.0159 0.0698 0.0083 0.0000 0.0000 0.0159 0.0001 0.0000 0.0327</r>
        <r>  0.0144 0.0591 0.0217 0.0000 0.0000 0.0290 0.0000 0.0000 0.0085</r>
       </set>
       <set comment="band 33">
        <r>  0.0134 0.0022 0.0126 0.0000 0.0000 0.0009 0.0061 0.0000 0.0124</r>
        <r>  0.0715 0.0067 0.0082 0.0000 0.0000 0.0000 0.0251 0.0000 0.0885</r>
        <r>  0.1242 0.0091 0.0000 0.0000 0.0000 0.0000 0.0419 0.0000 0.1425</r>
        <r>  0.0707 0.0071 0.0087 0.0000 0.0000 0.0000 0.0247 0.0000 0.0916</r>
        <r>  0.0125 0.0023 0.0130 0.0000 0.0000 0.0011 0.0060 0.0000 0.0125</r>
       </set>
      </set>
     </set>
    </set>
   </array>
  </projected>
 </calculation>
 <structure name="finalpos" >
  <crystal>
   <varray name="basis" >
    <v>       1.76500000       1.76500000       0.00000000 </v>
    <v>      -1.76500000       1.76500000       0.00000000 </v>
    <v>       0.00000000       0.00000000      17.65000000 </v>
   </varray>
   <i name="volume">    109.96744250</i>
   <varray name="rec_basis" >
    <v>       0.28328612       0.28328612       0.00000000 </v>
    <v>      -0.28328612       0.28328612       0.00000000 </v>
    <v>       0.00000000       0.00000000       0.05665722 </v>
   </varray>
  </crystal>
  <varray name="positions" >
   <v>       0.00000000       0.00000000       0.00000000 </v>
   <v>       0.50000000       0.50000000       0.10000000 </v>
   <v>       0.00000000       0.00000000       0.20000000 </v>
   <v>       0.50000000       0.50000000       0.30039442 </v>
   <v>       0.00000000       0.00000000       0.39589016 </v>
  </varray>
  <varray name="selective"  type="logical" >
   <v type="logical" >  F F F</v>
   <v type="logical" >  F F F</v>
   <v type="logical" >  F F F</v>
   <v type="logical" >  T T T</v>
   <v type="logical" >  T T T</v>
  </varray>
  <nose>
   <v>      -3.00000000       0.00000000       0.00010000       0.00010000 </v>
  </nose>
 </structure>
</modeling>
